GOMC Serial Version 1.9
Started at: Sat Apr 22 21:45:06 2017
On hostname: potoff39.eng.wayne.edu

Total number of CPUs: 4
Total number of CPUs available: 4
Model name: Intel(R) Core(TM) i5-2500K CPU @ 3.30GHz

System name: Linux
Release: 2.6.32-642.4.2.el6.x86_64
Version: #1 SMP Tue Aug 23 19:58:13 UTC 2016
Kernel Architecture: x86_64
Total Ram: 7856.3MB
Used Ram: 5242.3MB
Working in the current directory /home3/soroush/Desktop/validation/GOMC_Examples/GCMC/hexadecane_martini/run2a_bridge

------------------------------------------------------
This code was compiled to support the grand canonical ensemble.
------------------------------------------------------

REMINDER: MARTINI force field has been selected!
Temperature of system has been set to 680.00000 K 
Switch method will be used to truncate the VDW interaction.
Warning: Pressure calculation is turned off.
By default intra box swap frequency has been set to zero
Warning: Ewald method would not be used to calculate electrostatic energy!
Warning: Long Range Correction will be disabled for shift and switch potential!
Reading from CHARMM-Style Parameter File file: ./../../../common/Par_Martini_Charmm.inp
Finished reading CHARMM-Style Parameter File file: ./../../../common/Par_Martini_Charmm.inp
Reading from Box 1 PDB coordinate file file: ./STEP3_START_AC16_liq_BOX_0.pdb
Finished reading Box 1 PDB coordinate file file: ./STEP3_START_AC16_liq_BOX_0.pdb
Reading from Box 2 PDB coordinate file file: ./STEP3_START_AC16_reservoir_BOX_1.pdb
Finished reading Box 2 PDB coordinate file file: ./STEP3_START_AC16_reservoir_BOX_1.pdb
Random number seed: 1186479946

Molecules in PSF:
Molecule Kind: AC16
Idx	name	type	charge	mass
0	C1A	C1	0.0000	72.0000
1	C2A	C1	0.0000	72.0000
2	C3A	C1	0.0000	72.0000
3	C4A	C1	0.0000	72.0000
Bonds:
[0 1] [1 2] [2 3] 
Angles:
[0 1 2] [1 2 3] 
Dihedrals:
[0 1 2 3] 

REMINDER! 1-3 Interaction and more is ON for Martini forcefield
Minimum coordinates in box 0: x =    0.156, y =    0.098, z =    0.036
Maximum coordinates in box 0: x =   39.979, y =   39.890, z =   39.972
Minimum coordinates in box 1: x =    1.017, y =    1.105, z =    1.000
Maximum coordinates in box 1: x =   39.000, y =   39.000, z =   39.000

###############################################################################
########################## INITIAL SIMULATION ENERGY ##########################

ETITLE:     STEP           TOTAL        INTRA(B)       INTRA(NB)       INTER(LJ)             LRC     TOTAL_ELECT            REAL           RECIP            SELF            CORR

ENER_0:        0    -402276.9480      75173.8053      -9634.0848    -467816.6685          0.0000          0.0000          0.0000          0.0000          0.0000         -0.0000

ENER_1:        0     393252.4476     451054.0084     -57801.5608          0.0000          0.0000          0.0000          0.0000          0.0000          0.0000         -0.0000

###############################################################################
############################# STARTING SIMULATION #############################

MTITLE:     STEP          DISTRY       DISACCEPT      DISACCEPT%          DISMAX          ROTATE       ROTACCEPT      ROTACCEPT%          ROTMAX       INTRASWAP       INTACCEPT      INTACCEPT%        TRANSFER      TRANACCEPT     TRANACCEPT%

ETITLE:     STEP           TOTAL        INTRA(B)       INTRA(NB)       INTER(LJ)             LRC     TOTAL_ELECT            REAL           RECIP            SELF            CORR

STITLE:     STEP        TOTALMOL

Printed combined psf to file T_680_K_u_6365_r3a_l_merged.psf
MOVE_0:    10000            2899            1544         53.2597          0.5521            1066             521         48.8743          0.3535               0               0          0.0000            3022             426         14.0966

ENER_0:    10000    -174716.8323      20951.5375      -4000.4107    -191667.9591          0.0000          0.0000          0.0000          0.0000          0.0000          0.0000

STAT_0:    10000              62

MOVE_1:    10000            3013             388         12.8775

ENER_1:    10000     322683.0325     378311.1433     -55628.1108          0.0000          0.0000          0.0000          0.0000          0.0000          0.0000          0.0000

STAT_1:    10000             638

Steps/sec. : 2742.3570
MOVE_0:    20000            5923            3047         51.4435          0.4932            2062            1006         48.7876          0.2492               0               0          0.0000            5960             941         15.7886

ENER_0:    20000    -282886.3097      30331.6751      -5634.1478    -307583.8370          0.0000          0.0000          0.0000          0.0000          0.0000          0.0000

STAT_0:    20000              81

MOVE_1:    20000            6055             922         15.2271

ENER_1:    20000     275244.5635     327748.0672     -52503.5038          0.0000          0.0000          0.0000          0.0000          0.0000          0.0000          0.0000

STAT_1:    20000             619

Steps/sec. : 3037.7594
MOVE_0:    30000            8934            4573         51.1865          0.5534            3053            1512         49.5251          0.2967               0               0          0.0000            8939            1531         17.1272

ENER_0:    30000    -223670.8720      29426.0954      -5455.1525    -247641.8148          0.0000          0.0000          0.0000          0.0000          0.0000          0.0000

STAT_0:    30000              73

MOVE_1:    30000            9074            1504         16.5748

ENER_1:    30000     264628.3971     317878.5085     -53250.1114          0.0000          0.0000          0.0000          0.0000          0.0000          0.0000          0.0000

STAT_1:    30000             627

Steps/sec. : 3071.8334
MOVE_0:    40000           11915            6073         50.9694          0.5724            4021            2003         49.8135          0.3157               0               0          0.0000           11964            1968         16.4493

ENER_0:    40000    -277083.4227      24478.5170      -4992.1634    -296569.7762          0.0000          0.0000          0.0000          0.0000          0.0000          0.0000

STAT_0:    40000              78

MOVE_1:    40000           12100            1946         16.0826

ENER_1:    40000     230261.6676     279031.7224     -48770.0547          0.0000          0.0000          0.0000          0.0000          0.0000          0.0000          0.0000

STAT_1:    40000             622

Steps/sec. : 2920.7049
MOVE_0:    50000           14890            7543         50.6582          0.4990            5045            2513         49.8117          0.2776               0               0          0.0000           15009            2289         15.2508

ENER_0:    50000    -317628.2657      32912.9534      -6057.7024    -344483.5167          0.0000          0.0000          0.0000          0.0000          0.0000          0.0000

STAT_0:    50000              86

MOVE_1:    50000           15056            2275         15.1103

ENER_1:    50000     219005.1398     265849.5037     -46844.3638          0.0000          0.0000          0.0000          0.0000          0.0000          0.0000          0.0000

STAT_1:    50000             614

Steps/sec. : 2821.6703
MOVE_0:    60000           17892            9065         50.6651          0.5580            6056            3019         49.8514          0.2739               0               0          0.0000           18044            2558         14.1765

ENER_0:    60000    -279922.6303      31109.8032      -5801.6869    -305230.7465          0.0000          0.0000          0.0000          0.0000          0.0000          0.0000

STAT_0:    60000              80

MOVE_1:    60000           18008            2538         14.0937

ENER_1:    60000     223305.1885     271853.8784     -48548.6899          0.0000          0.0000          0.0000          0.0000          0.0000          0.0000          0.0000

STAT_1:    60000             620

Steps/sec. : 2772.9291
MOVE_0:    70000           20883           10549         50.5148          0.5013            7086            3543         50.0000          0.2912               0               0          0.0000           20916            2963         14.1662

ENER_0:    70000    -132052.0947      29076.2947      -4920.6487    -156207.7407          0.0000          0.0000          0.0000          0.0000          0.0000          0.0000

STAT_0:    70000              54

MOVE_1:    70000           21115            2917         13.8148

ENER_1:    70000     243670.3767     296541.1399     -52870.7632          0.0000          0.0000          0.0000          0.0000          0.0000          0.0000          0.0000

STAT_1:    70000             646

Steps/sec. : 2903.3223
MOVE_0:    80000           23860           12048         50.4946          0.5218            8079            4044         50.0557          0.2951               0               0          0.0000           23980            3466         14.4537

ENER_0:    80000    -250479.2880      38827.4660      -3940.4997    -285366.2543          0.0000          0.0000          0.0000          0.0000          0.0000          0.0000

STAT_0:    80000              79

MOVE_1:    80000           24081            3445         14.3059

ENER_1:    80000     233579.6452     284304.9154     -50725.2702          0.0000          0.0000          0.0000          0.0000          0.0000          0.0000          0.0000

STAT_1:    80000             621

Steps/sec. : 3013.8981
MOVE_0:    90000           26814           13542         50.5035          0.5740            9119            4562         50.0274          0.2498               0               0          0.0000           27013            3912         14.4819

ENER_0:    90000    -288771.3365      25043.5813      -4993.8199    -308821.0979          0.0000          0.0000          0.0000          0.0000          0.0000          0.0000

STAT_0:    90000              81

MOVE_1:    90000           27054            3893         14.3897

ENER_1:    90000     243982.1856     296276.5147     -52294.3291          0.0000          0.0000          0.0000          0.0000          0.0000          0.0000          0.0000

STAT_1:    90000             619

Steps/sec. : 2953.7543
MOVE_0:   100000           29819           15037         50.4276          0.5317           10141            5095         50.2416          0.3403               0               0          0.0000           29955            4278         14.2814

ENER_0:   100000    -191057.4794      26596.6228      -4778.6459    -212875.4563          0.0000          0.0000          0.0000          0.0000          0.0000          0.0000

STAT_0:   100000              64

MOVE_1:   100000           30085            4242         14.1000

ENER_1:   100000     227248.7965     276958.1481     -49709.3516          0.0000          0.0000          0.0000          0.0000          0.0000          0.0000          0.0000

STAT_1:   100000             636

Steps/sec. : 2861.9288
MOVE_0:   110000           32776           16528         50.4271          0.5697           11119            5580         50.1844          0.2929               0               0          0.0000           33018            4690         14.2044

ENER_0:   110000    -202895.5870      39083.7465      -5817.0077    -236162.3258          0.0000          0.0000          0.0000          0.0000          0.0000          0.0000

STAT_0:   110000              71

MOVE_1:   110000           33087            4661         14.0871

ENER_1:   110000     235284.7658     285751.7399     -50466.9741          0.0000          0.0000          0.0000          0.0000          0.0000          0.0000          0.0000

STAT_1:   110000             629

Steps/sec. : 2903.4547
MOVE_0:   120000           35746           17997         50.3469          0.5000           12132            6075         50.0742          0.2229               0               0          0.0000           35978            5106         14.1920

ENER_0:   120000    -264676.9389      35229.5854      -6107.7323    -293798.7920          0.0000          0.0000          0.0000          0.0000          0.0000          0.0000

STAT_0:   120000              80

MOVE_1:   120000           36144            5086         14.0715

ENER_1:   120000     237972.2751     289861.4791     -51889.2040          0.0000          0.0000          0.0000          0.0000          0.0000          0.0000          0.0000

STAT_1:   120000             620

Steps/sec. : 2925.0610
MOVE_0:   130000           38733           19499         50.3421          0.5222           13170            6598         50.0987          0.2389               0               0          0.0000           38938            5571         14.3074

ENER_0:   130000    -243061.8998      41790.1596      -6894.0543    -277958.0051          0.0000          0.0000          0.0000          0.0000          0.0000          0.0000

STAT_0:   130000              78

MOVE_1:   130000           39159            5549         14.1704

ENER_1:   130000     223728.8668     273148.3234     -49419.4565          0.0000          0.0000          0.0000          0.0000          0.0000          0.0000          0.0000

STAT_1:   130000             622

Steps/sec. : 2973.7355
MOVE_0:   140000           41791           21040         50.3458          0.5612           14129            7099         50.2442          0.3411               0               0          0.0000           42000            6021         14.3357

ENER_0:   140000    -210849.3313      36391.2378      -6402.1540    -240838.4152          0.0000          0.0000          0.0000          0.0000          0.0000          0.0000

STAT_0:   140000              70

MOVE_1:   140000           42080            5991         14.2372

ENER_1:   140000     206621.1369     253660.1737     -47039.0368          0.0000          0.0000          0.0000          0.0000          0.0000          0.0000          0.0000

STAT_1:   140000             630

Steps/sec. : 2984.3591
MOVE_0:   150000           44809           22551         50.3269          0.5469           15125            7585         50.1488          0.2536               0               0          0.0000           44964            6434         14.3092

ENER_0:   150000    -262384.1726      35590.8868      -4152.5802    -293822.4792          0.0000          0.0000          0.0000          0.0000          0.0000          0.0000

STAT_0:   150000              79

MOVE_1:   150000           45102            6413         14.2189

ENER_1:   150000     226299.2095     277228.1222     -50928.9127          0.0000          0.0000          0.0000          0.0000          0.0000          0.0000          0.0000

STAT_1:   150000             621

Steps/sec. : 2915.0229
MOVE_0:   160000           47780           24061         50.3579          0.6402           16119            8107         50.2947          0.3780               0               0          0.0000           48024            6855         14.2741

ENER_0:   160000    -185879.0035      30823.2879      -5370.5302    -211331.7612          0.0000          0.0000          0.0000          0.0000          0.0000          0.0000

STAT_0:   160000              66

MOVE_1:   160000           48077            6821         14.1877

ENER_1:   160000     249682.6242     303452.7458     -53770.1216          0.0000          0.0000          0.0000          0.0000          0.0000          0.0000          0.0000

STAT_1:   160000             634

Steps/sec. : 2971.0592
MOVE_0:   170000           50756           25544         50.3271          0.5706           17158            8618         50.2273          0.2886               0               0          0.0000           51018            7472         14.6458

ENER_0:   170000    -244976.7220      37151.1851      -6369.8629    -275758.0442          0.0000          0.0000          0.0000          0.0000          0.0000          0.0000

STAT_0:   170000              76

MOVE_1:   170000           51068            7448         14.5845

ENER_1:   170000     226936.6541     277584.7982     -50648.1441          0.0000          0.0000          0.0000          0.0000          0.0000          0.0000          0.0000

STAT_1:   170000             624

Steps/sec. : 3197.0045
MOVE_0:   180000           53785           27053         50.2984          0.5291           18130            9102         50.2041          0.2098               0               0          0.0000           54008            7875         14.5812

ENER_0:   180000    -295787.7067      34073.5576      -6511.0286    -323350.2357          0.0000          0.0000          0.0000          0.0000          0.0000          0.0000

STAT_0:   180000              83

MOVE_1:   180000           54077            7858         14.5311

ENER_1:   180000     217053.1723     266825.5511     -49772.3788          0.0000          0.0000          0.0000          0.0000          0.0000          0.0000          0.0000

STAT_1:   180000             617

Steps/sec. : 2977.1606
MOVE_0:   190000           56858           28591         50.2849          0.5207           19088            9595         50.2672          0.2707               0               0          0.0000           56994            8259         14.4910

ENER_0:   190000    -254149.5975      35071.5909      -6192.0353    -283029.1532          0.0000          0.0000          0.0000          0.0000          0.0000          0.0000

STAT_0:   190000              77

MOVE_1:   190000           57060            8236         14.4339

ENER_1:   190000     213789.9378     263399.8266     -49609.8888          0.0000          0.0000          0.0000          0.0000          0.0000          0.0000          0.0000

STAT_1:   190000             623

Steps/sec. : 2981.6932
MOVE_0:   200000           59967           30159         50.2927          0.5593           20040           10087         50.3343          0.3580               0               0          0.0000           59964            8634         14.3986

ENER_0:   200000    -231301.2504      37175.2425      -6420.5276    -262055.9653          0.0000          0.0000          0.0000          0.0000          0.0000          0.0000

STAT_0:   200000              74

MOVE_1:   200000           60029            8608         14.3397

ENER_1:   200000     228065.8198     277379.4327     -49313.6129          0.0000          0.0000          0.0000          0.0000          0.0000          0.0000          0.0000

STAT_1:   200000             626

Steps/sec. : 2989.8228
MOVE_0:   210000           63002           31677         50.2794          0.5424           21069           10593         50.2777          0.2944               0               0          0.0000           62896            8972         14.2648

ENER_0:   210000    -253083.6956      38485.7915      -7311.7666    -284257.7205          0.0000          0.0000          0.0000          0.0000          0.0000          0.0000

STAT_0:   210000              77

MOVE_1:   210000           63033            8949         14.1973

ENER_1:   210000     229448.8128     278019.1218     -48570.3090          0.0000          0.0000          0.0000          0.0000          0.0000          0.0000          0.0000

STAT_1:   210000             623

Steps/sec. : 2942.0858
MOVE_0:   220000           65996           33169         50.2591          0.5076           22065           11091         50.2651          0.2632               0               0          0.0000           65901            9396         14.2578

ENER_0:   220000    -237640.8147      32089.2631      -5709.6478    -264020.4300          0.0000          0.0000          0.0000          0.0000          0.0000          0.0000

STAT_0:   220000              72

MOVE_1:   220000           66038            9368         14.1858

ENER_1:   220000     217378.2363     265274.7721     -47896.5358          0.0000          0.0000          0.0000          0.0000          0.0000          0.0000          0.0000

STAT_1:   220000             628

Steps/sec. : 2993.1884
MOVE_0:   230000           68995           34681         50.2660          0.5319           23080           11619         50.3423          0.3620               0               0          0.0000           68889            9830         14.2693

ENER_0:   230000    -265776.2360      35856.9211      -6022.0052    -295611.1519          0.0000          0.0000          0.0000          0.0000          0.0000          0.0000

STAT_0:   230000              79

MOVE_1:   230000           69036            9809         14.2085

ENER_1:   230000     235211.3041     286694.3392     -51483.0352          0.0000          0.0000          0.0000          0.0000          0.0000          0.0000          0.0000

STAT_1:   230000             621

Steps/sec. : 3018.8351
MOVE_0:   240000           71989           36180         50.2577          0.5357           24111           12154         50.4085          0.3689               0               0          0.0000           71873           10320         14.3587

ENER_0:   240000    -233995.1236      37773.5269      -6519.8181    -265248.8325          0.0000          0.0000          0.0000          0.0000          0.0000          0.0000

STAT_0:   240000              77

MOVE_1:   240000           72027           10297         14.2960

ENER_1:   240000     233041.4913     283483.2156     -50441.7242          0.0000          0.0000          0.0000          0.0000          0.0000          0.0000          0.0000

STAT_1:   240000             623

Steps/sec. : 3064.8449
MOVE_0:   250000           74902           37648         50.2630          0.5726           25102           12649         50.3904          0.2965               0               0          0.0000           74955           10819         14.4340

ENER_0:   250000    -199710.3529      22917.7030      -4882.6614    -217745.3944          0.0000          0.0000          0.0000          0.0000          0.0000          0.0000

STAT_0:   250000              69

MOVE_1:   250000           75041           10788         14.3761

ENER_1:   250000     247813.7531     297666.3240     -49852.5709          0.0000          0.0000          0.0000          0.0000          0.0000          0.0000          0.0000

STAT_1:   250000             631

Steps/sec. : 3019.0520
MOVE_0:   260000           77821           39119         50.2679          0.5745           26135           13168         50.3845          0.2803               0               0          0.0000           78003           11342         14.5405

ENER_0:   260000    -232953.6535      24553.2568      -4733.6168    -252773.2935          0.0000          0.0000          0.0000          0.0000          0.0000          0.0000

STAT_0:   260000              73

MOVE_1:   260000           78041           11315         14.4988

ENER_1:   260000     225166.4787     271175.9310     -46009.4523          0.0000          0.0000          0.0000          0.0000          0.0000          0.0000          0.0000

STAT_1:   260000             627

Steps/sec. : 3067.8414
MOVE_0:   270000           80774           40585         50.2451          0.5021           27161           13690         50.4032          0.3000               0               0          0.0000           81008           11750         14.5047

ENER_0:   270000    -245445.6899      31165.6681      -5549.5154    -271061.8425          0.0000          0.0000          0.0000          0.0000          0.0000          0.0000

STAT_0:   270000              76

MOVE_1:   270000           81057           11726         14.4664

ENER_1:   270000     232810.8620     281984.1080     -49173.2460          0.0000          0.0000          0.0000          0.0000          0.0000          0.0000          0.0000

STAT_1:   270000             624

Steps/sec. : 2932.4713
MOVE_0:   280000           83686           42041         50.2366          0.4943           28162           14197         50.4119          0.3316               0               0          0.0000           84060           12197         14.5099

ENER_0:   280000    -293907.0791      31207.2704      -5775.2466    -319339.1029          0.0000          0.0000          0.0000          0.0000          0.0000          0.0000

STAT_0:   280000              83

MOVE_1:   280000           84092           12180         14.4841

ENER_1:   280000     236746.3933     287580.4705     -50834.0771          0.0000          0.0000          0.0000          0.0000          0.0000          0.0000          0.0000

STAT_1:   280000             617

Steps/sec. : 2977.6385
MOVE_0:   290000           86703           43598         50.2843          0.6499           29117           14677         50.4070          0.2973               0               0          0.0000           87016           12737         14.6375

ENER_0:   290000    -210739.4596      36049.0842      -6159.4319    -240629.1120          0.0000          0.0000          0.0000          0.0000          0.0000          0.0000

STAT_0:   290000              72

MOVE_1:   290000           87164           12709         14.5806

ENER_1:   290000     238137.3835     290420.7647     -52283.3811          0.0000          0.0000          0.0000          0.0000          0.0000          0.0000          0.0000

STAT_1:   290000             628

Steps/sec. : 3093.3779
MOVE_0:   300000           89654           45054         50.2532          0.5566           30150           15207         50.4378          0.3201               0               0          0.0000           90073           13326         14.7947

ENER_0:   300000    -253074.2583      34317.7013      -6286.6758    -281105.2838          0.0000          0.0000          0.0000          0.0000          0.0000          0.0000

STAT_0:   300000              79

MOVE_1:   300000           90123           13305         14.7632

ENER_1:   300000     219003.2569     266288.3037     -47285.0468          0.0000          0.0000          0.0000          0.0000          0.0000          0.0000          0.0000

STAT_1:   300000             621

Steps/sec. : 3132.7929
MOVE_0:   310000           92650           46555         50.2482          0.5231           31177           15719         50.4186          0.3017               0               0          0.0000           93058           13720         14.7435

ENER_0:   310000    -276410.5001      31412.8436      -5542.7455    -302280.5982          0.0000          0.0000          0.0000          0.0000          0.0000          0.0000

STAT_0:   310000              79

MOVE_1:   310000           93115           13699         14.7119

ENER_1:   310000     219868.1443     267909.5663     -48041.4220          0.0000          0.0000          0.0000          0.0000          0.0000          0.0000          0.0000

STAT_1:   310000             621

Steps/sec. : 2939.6695
MOVE_0:   320000           95647           48057         50.2441          0.4986           32169           16222         50.4274          0.2948               0               0          0.0000           96064           14147         14.7266

ENER_0:   320000    -272134.9465      32645.8212      -5961.0775    -298819.6902          0.0000          0.0000          0.0000          0.0000          0.0000          0.0000

STAT_0:   320000              79

MOVE_1:   320000           96120           14126         14.6962

ENER_1:   320000     213769.8830     261401.1182     -47631.2352          0.0000          0.0000          0.0000          0.0000          0.0000          0.0000          0.0000

STAT_1:   320000             621

Steps/sec. : 2948.7095
MOVE_0:   330000           98646           49545         50.2250          0.4576           33140           16709         50.4194          0.2935               0               0          0.0000           99054           14397         14.5345

ENER_0:   330000    -281644.1616      33701.7381      -6062.4650    -309283.4346          0.0000          0.0000          0.0000          0.0000          0.0000          0.0000

STAT_0:   330000              83

MOVE_1:   330000           99160           14380         14.5018

ENER_1:   330000     230095.4912     280378.1637     -50282.6725          0.0000          0.0000          0.0000          0.0000          0.0000          0.0000          0.0000

STAT_1:   330000             617

Steps/sec. : 2829.3353
MOVE_0:   340000          101597           51038         50.2357          0.5078           34169           17224         50.4083          0.2668               0               0          0.0000          102002           14748         14.4585

ENER_0:   340000    -270177.8805      30686.8983      -5828.3102    -295036.4686          0.0000          0.0000          0.0000          0.0000          0.0000          0.0000

STAT_0:   340000              79

MOVE_1:   340000          102232           14727         14.4055

ENER_1:   340000     230091.6625     281188.7892     -51097.1267          0.0000          0.0000          0.0000          0.0000          0.0000          0.0000          0.0000

STAT_1:   340000             621

Steps/sec. : 2935.2937
MOVE_0:   350000          104619           52549         50.2289          0.4671           35148           17713         50.3955          0.2579               0               0          0.0000          104958           15115         14.4010

ENER_0:   350000    -287506.0588      39421.4460      -6962.9106    -319964.5943          0.0000          0.0000          0.0000          0.0000          0.0000          0.0000

STAT_0:   350000              83

MOVE_1:   350000          105275           15098         14.3415

ENER_1:   350000     228636.6162     278601.6838     -49965.0676          0.0000          0.0000          0.0000          0.0000          0.0000          0.0000          0.0000

STAT_1:   350000             617

Steps/sec. : 2924.1537
MOVE_0:   360000          107611           54066         50.2421          0.5182           36143           18219         50.4081          0.2966               0               0          0.0000          107925           15665         14.5147

ENER_0:   360000    -310178.0419      29085.8476      -5746.6048    -333517.2847          0.0000          0.0000          0.0000          0.0000          0.0000          0.0000

STAT_0:   360000              84

MOVE_1:   360000          108321           15649         14.4469

ENER_1:   360000     227383.3778     277115.2843     -49731.9066          0.0000          0.0000          0.0000          0.0000          0.0000          0.0000          0.0000

STAT_1:   360000             616

Steps/sec. : 3139.0276
MOVE_0:   370000          110633           55577         50.2355          0.5056           37201           18745         50.3884          0.2749               0               0          0.0000          110824           15979         14.4184

ENER_0:   370000    -278666.2364      36383.8457      -5583.0336    -309467.0485          0.0000          0.0000          0.0000          0.0000          0.0000          0.0000

STAT_0:   370000              80

MOVE_1:   370000          111342           15959         14.3333

ENER_1:   370000     243699.2374     294985.4531     -51286.2158          0.0000          0.0000          0.0000          0.0000          0.0000          0.0000          0.0000

STAT_1:   370000             620

Steps/sec. : 2915.6227
MOVE_0:   380000          113708           57139         50.2506          0.5789           38134           19217         50.3933          0.3042               0               0          0.0000          113846           16480         14.4757

ENER_0:   380000    -176106.0647      25598.6530      -4570.7855    -197133.9322          0.0000          0.0000          0.0000          0.0000          0.0000          0.0000

STAT_0:   380000              63

MOVE_1:   380000          114312           16443         14.3843

ENER_1:   380000     242501.6818     293916.3053     -51414.6235          0.0000          0.0000          0.0000          0.0000          0.0000          0.0000          0.0000

STAT_1:   380000             637

Steps/sec. : 3117.1544
MOVE_0:   390000          116643           58626         50.2611          0.6350           39157           19743         50.4201          0.3696               0               0          0.0000          116883           17117         14.6446

ENER_0:   390000    -216455.2922      34851.4586      -5797.2567    -245509.4941          0.0000          0.0000          0.0000          0.0000          0.0000          0.0000

STAT_0:   390000              70

MOVE_1:   390000          117317           17087         14.5648

ENER_1:   390000     235945.9609     288017.4182     -52071.4572          0.0000          0.0000          0.0000          0.0000          0.0000          0.0000          0.0000

STAT_1:   390000             630

Steps/sec. : 3233.9833
MOVE_0:   400000          119629           60132         50.2654          0.6233           40179           20260         50.4244          0.3376               0               0          0.0000          119870           17636         14.7126

ENER_0:   400000    -192282.2002      33421.7208      -6334.2292    -219369.6918          0.0000          0.0000          0.0000          0.0000          0.0000          0.0000

STAT_0:   400000              69

MOVE_1:   400000          120322           17605         14.6316

ENER_1:   400000     234222.1874     285749.6326     -51527.4452          0.0000          0.0000          0.0000          0.0000          0.0000          0.0000          0.0000

STAT_1:   400000             631

Steps/sec. : 3100.2859
MOVE_0:   410000          122613           61626         50.2606          0.6305           41138           20744         50.4254          0.3334               0               0          0.0000          122871           18156         14.7765

ENER_0:   410000    -153820.7381      20092.9932      -3931.7863    -169981.9450          0.0000          0.0000          0.0000          0.0000          0.0000          0.0000

STAT_0:   410000              58

MOVE_1:   410000          123378           18114         14.6817

ENER_1:   410000     239130.4587     290400.6011     -51270.1424          0.0000          0.0000          0.0000          0.0000          0.0000          0.0000          0.0000

STAT_1:   410000             642

Steps/sec. : 3118.1273
MOVE_0:   420000          125628           63095         50.2237          0.4693           42110           21230         50.4156          0.2963               0               0          0.0000          125855           18635         14.8067

ENER_0:   420000    -255055.1468      37904.0749      -6881.5797    -286077.6420          0.0000          0.0000          0.0000          0.0000          0.0000          0.0000

STAT_0:   420000              79

MOVE_1:   420000          126407           18614         14.7255

ENER_1:   420000     238263.8808     289138.1075     -50874.2267          0.0000          0.0000          0.0000          0.0000          0.0000          0.0000          0.0000

STAT_1:   420000             621

Steps/sec. : 3063.3286
MOVE_0:   430000          128646           64609         50.2223          0.4560           43097           21724         50.4072          0.2885               0               0          0.0000          128834           19080         14.8098

ENER_0:   430000    -225176.0914      30887.0897      -5253.4268    -250809.7542          0.0000          0.0000          0.0000          0.0000          0.0000          0.0000

STAT_0:   430000              74

MOVE_1:   430000          129423           19054         14.7223

ENER_1:   430000     231522.2809     280707.7050     -49185.4241          0.0000          0.0000          0.0000          0.0000          0.0000          0.0000          0.0000

STAT_1:   430000             626

Steps/sec. : 3051.2644
MOVE_0:   440000          131677           66182         50.2609          0.6506           44135           22242         50.3954          0.2597               0               0          0.0000          131839           19455         14.7566

ENER_0:   440000    -242368.0272      29906.9500      -5409.4704    -266865.5068          0.0000          0.0000          0.0000          0.0000          0.0000          0.0000

STAT_0:   440000              76

MOVE_1:   440000          132349           19431         14.6816

ENER_1:   440000     222732.1491     269372.9936     -46640.8446          0.0000          0.0000          0.0000          0.0000          0.0000          0.0000          0.0000

STAT_1:   440000             624

Steps/sec. : 2976.9559
MOVE_0:   450000          134681           67660         50.2372          0.5428           45146           22749         50.3898          0.2543               0               0          0.0000          134825           19927         14.7799

ENER_0:   450000    -287797.4486      32797.7170      -5606.2493    -314988.9163          0.0000          0.0000          0.0000          0.0000          0.0000          0.0000

STAT_0:   450000              84

MOVE_1:   450000          135348           19911         14.7110

ENER_1:   450000     230130.5446     278074.7698     -47944.2252          0.0000          0.0000          0.0000          0.0000          0.0000          0.0000          0.0000

STAT_1:   450000             616

Steps/sec. : 3060.3081
MOVE_0:   460000          137655           69138         50.2256          0.5016           46168           23263         50.3877          0.2466               0               0          0.0000          137787           20330         14.7547

ENER_0:   460000    -278951.7305      32684.2665      -5908.7627    -305727.2344          0.0000          0.0000          0.0000          0.0000          0.0000          0.0000

STAT_0:   460000              79

MOVE_1:   460000          138390           20309         14.6752

ENER_1:   460000     228307.7595     275971.8387     -47664.0793          0.0000          0.0000          0.0000          0.0000          0.0000          0.0000          0.0000

STAT_1:   460000             621

Steps/sec. : 2964.9781
MOVE_0:   470000          140687           70653         50.2200          0.4870           47162           23773         50.4071          0.2974               0               0          0.0000          140748           20805         14.7817

ENER_0:   470000    -210303.9484      32666.6175      -5704.3511    -237266.2147          0.0000          0.0000          0.0000          0.0000          0.0000          0.0000

STAT_0:   470000              71

MOVE_1:   470000          141403           20776         14.6928

ENER_1:   470000     222229.9920     269281.4162     -47051.4243          0.0000          0.0000          0.0000          0.0000          0.0000          0.0000          0.0000

STAT_1:   470000             629

Steps/sec. : 3062.8322
MOVE_0:   480000          143700           72199         50.2429          0.5852           48115           24255         50.4105          0.3229               0               0          0.0000          143792           21436         14.9076

ENER_0:   480000    -245532.7685      27609.7324      -5168.0090    -267974.4919          0.0000          0.0000          0.0000          0.0000          0.0000          0.0000

STAT_0:   480000              73

MOVE_1:   480000          144393           21409         14.8269

ENER_1:   480000     211455.8231     256919.1558     -45463.3327          0.0000          0.0000          0.0000          0.0000          0.0000          0.0000          0.0000

STAT_1:   480000             627

Steps/sec. : 3182.7084
MOVE_0:   490000          146683           73665         50.2205          0.4677           49178           24789         50.4067          0.3053               0               0          0.0000          146749           21757         14.8260

ENER_0:   490000    -278328.5755      24544.7791      -4976.4611    -297896.8935          0.0000          0.0000          0.0000          0.0000          0.0000          0.0000

STAT_0:   490000              80

MOVE_1:   490000          147390           21737         14.7479

ENER_1:   490000     219782.2632     267047.7082     -47265.4450          0.0000          0.0000          0.0000          0.0000          0.0000          0.0000          0.0000

STAT_1:   490000             620

Steps/sec. : 2938.2840
MOVE_0:   500000          149713           75216         50.2401          0.5595           50145           25277         50.4078          0.3115               0               0          0.0000          149754           22228         14.8430

ENER_0:   500000    -239721.2432      32247.0044      -5798.1194    -266170.1283          0.0000          0.0000          0.0000          0.0000          0.0000          0.0000

STAT_0:   500000              75

MOVE_1:   500000          150388           22203         14.7638

ENER_1:   500000     223129.1657     270863.1793     -47734.0136          0.0000          0.0000          0.0000          0.0000          0.0000          0.0000          0.0000

STAT_1:   500000             625

Steps/sec. : 3024.6104
MOVE_0:   510000          152733           76708         50.2236          0.4724           51170           25782         50.3850          0.2452               0               0          0.0000          152610           22690         14.8680

ENER_0:   510000    -286139.6858      23557.7794      -4671.8022    -305025.6630          0.0000          0.0000          0.0000          0.0000          0.0000          0.0000

STAT_0:   510000              79

MOVE_1:   510000          153487           22669         14.7693

ENER_1:   510000     224232.1179     271994.8729     -47762.7550          0.0000          0.0000          0.0000          0.0000          0.0000          0.0000          0.0000

STAT_1:   510000             621

Steps/sec. : 1238.1805
MOVE_0:   520000          155694           78189         50.2197          0.4696           52183           26294         50.3881          0.2552               0               0          0.0000          155588           23004         14.7852

ENER_0:   520000    -268964.0185      23847.2552      -4720.5981    -288090.6756          0.0000          0.0000          0.0000          0.0000          0.0000          0.0000

STAT_0:   520000              78

MOVE_1:   520000          156535           22982         14.6817

ENER_1:   520000     222568.3015     269822.7127     -47254.4112          0.0000          0.0000          0.0000          0.0000          0.0000          0.0000          0.0000

STAT_1:   520000             622

Steps/sec. : 1210.5223
MOVE_0:   530000          158751           79761         50.2428          0.5854           53151           26793         50.4092          0.3225               0               0          0.0000          158582           23462         14.7949

ENER_0:   530000    -213088.3589      24360.5222      -4786.5700    -232662.3110          0.0000          0.0000          0.0000          0.0000          0.0000          0.0000

STAT_0:   530000              68

MOVE_1:   530000          159516           23430         14.6882

ENER_1:   530000     202603.3089     248368.4812     -45765.1723          0.0000          0.0000          0.0000          0.0000          0.0000          0.0000          0.0000

STAT_1:   530000             632

Steps/sec. : 1364.2379
MOVE_0:   540000          161711           81248         50.2427          0.5890           54143           27296         50.4146          0.3651               0               0          0.0000          161636           23991         14.8426

ENER_0:   540000    -189074.0577      39654.9601      -6584.3726    -222144.6452          0.0000          0.0000          0.0000          0.0000          0.0000          0.0000

STAT_0:   540000              69

MOVE_1:   540000          162510           23960         14.7437

ENER_1:   540000     224648.7093     273061.7404     -48413.0312          0.0000          0.0000          0.0000          0.0000          0.0000          0.0000          0.0000

STAT_1:   540000             631

Steps/sec. : 1316.0147
MOVE_0:   550000          164699           82753         50.2450          0.6205           55107           27784         50.4183          0.4092               0               0          0.0000          164662           24626         14.9555

ENER_0:   550000    -209432.5072      30549.4139      -5413.1720    -234568.7491          0.0000          0.0000          0.0000          0.0000          0.0000          0.0000

STAT_0:   550000              71

MOVE_1:   550000          165532           24597         14.8594

ENER_1:   550000     231126.3848     279009.4495     -47883.0647          0.0000          0.0000          0.0000          0.0000          0.0000          0.0000          0.0000

STAT_1:   550000             629

Steps/sec. : 1313.0625
MOVE_0:   560000          167649           84237         50.2460          0.6253           56106           28276         50.3975          0.3513               0               0          0.0000          167652           25160         15.0073

ENER_0:   560000    -180436.1688      25607.7005      -4575.4011    -201468.4682          0.0000          0.0000          0.0000          0.0000          0.0000          0.0000

STAT_0:   560000              64

MOVE_1:   560000          168593           25124         14.9022

ENER_1:   560000     218973.3793     267105.1110     -48131.7317          0.0000          0.0000          0.0000          0.0000          0.0000          0.0000          0.0000

STAT_1:   560000             636

Steps/sec. : 1241.0423
MOVE_0:   570000          170657           85721         50.2300          0.5451           57131           28781         50.3772          0.2798               0               0          0.0000          170611           25597         15.0031

ENER_0:   570000    -220238.2194      30020.9219      -5206.1463    -245052.9950          0.0000          0.0000          0.0000          0.0000          0.0000          0.0000

STAT_0:   570000              74

MOVE_1:   570000          171601           25571         14.9014

ENER_1:   570000     222085.6877     271262.6161     -49176.9284          0.0000          0.0000          0.0000          0.0000          0.0000          0.0000          0.0000

STAT_1:   570000             626

Steps/sec. : 1285.3788
MOVE_0:   580000          173729           87251         50.2225          0.5035           58083           29243         50.3469          0.1931               0               0          0.0000          173656           26021         14.9842

ENER_0:   580000    -269049.2337      28585.5551      -5410.5046    -292224.2842          0.0000          0.0000          0.0000          0.0000          0.0000          0.0000

STAT_0:   580000              80

MOVE_1:   580000          174532           26001         14.8976

ENER_1:   580000     227193.2547     277552.3350     -50359.0803          0.0000          0.0000          0.0000          0.0000          0.0000          0.0000          0.0000

STAT_1:   580000             620

Steps/sec. : 1243.2351
MOVE_0:   590000          176749           88803         50.2424          0.6187           59084           29770         50.3859          0.2974               0               0          0.0000          176708           26484         14.9874

ENER_0:   590000    -239716.0944      26665.4336      -5138.4936    -261243.0344          0.0000          0.0000          0.0000          0.0000          0.0000          0.0000

STAT_0:   590000              76

MOVE_1:   590000          177459           26460         14.9105

ENER_1:   590000     227285.4298     276554.3433     -49268.9135          0.0000          0.0000          0.0000          0.0000          0.0000          0.0000          0.0000

STAT_1:   590000             624

Steps/sec. : 1267.2887
MOVE_0:   600000          179764           90292         50.2281          0.5311           60088           30265         50.3678          0.2395               0               0          0.0000          179748           26855         14.9404

ENER_0:   600000    -213693.5745      28512.6416      -5033.4157    -237172.8004          0.0000          0.0000          0.0000          0.0000          0.0000          0.0000

STAT_0:   600000              70

MOVE_1:   600000          180400           26825         14.8697

ENER_1:   600000     230708.1046     280536.9969     -49828.8923          0.0000          0.0000          0.0000          0.0000          0.0000          0.0000          0.0000

STAT_1:   600000             630

Steps/sec. : 1266.2153
MOVE_0:   610000          182756           91845         50.2555          0.7331           61128           30810         50.4024          0.3751               0               0          0.0000          182787           27539         15.0662

ENER_0:   610000    -116846.8427      18093.8062      -3491.3318    -131449.3170          0.0000          0.0000          0.0000          0.0000          0.0000          0.0000

STAT_0:   610000              51

MOVE_1:   610000          183329           27490         14.9949

ENER_1:   610000     250438.4042     303351.0471     -52912.6429          0.0000          0.0000          0.0000          0.0000          0.0000          0.0000          0.0000

STAT_1:   610000             649

Steps/sec. : 1316.8001
MOVE_0:   620000          185793           93565         50.3598          2.2515           62135           31392         50.5222          1.3444               0               0          0.0000          185802           29056         15.6382

ENER_0:   620000     -16781.7658      13267.3594      -1940.3833     -28108.7419          0.0000          0.0000          0.0000          0.0000          0.0000          0.0000

STAT_0:   620000              20

MOVE_1:   620000          186270           28976         15.5559

ENER_1:   620000     248330.6522     300652.6598     -52322.0076          0.0000          0.0000          0.0000          0.0000          0.0000          0.0000          0.0000

STAT_1:   620000             680

Steps/sec. : 1459.4070
MOVE_0:   630000          188796           94902         50.2670          0.5230           63155           31828         50.3966          0.2288               0               0          0.0000          188811           30197         15.9932

ENER_0:   630000    -257095.2047      33313.8970      -5970.3203    -284438.7814          0.0000          0.0000          0.0000          0.0000          0.0000          0.0000

STAT_0:   630000              79

MOVE_1:   630000          189238           30176         15.9461

ENER_1:   630000     223324.2625     271495.8533     -48171.5908          0.0000          0.0000          0.0000          0.0000          0.0000          0.0000          0.0000

STAT_1:   630000             621

Steps/sec. : 1401.5841
MOVE_0:   640000          191776           96419         50.2769          0.6019           64214           32382         50.4283          0.2916               0               0          0.0000          191744           30654         15.9869

ENER_0:   640000    -296174.2958      30341.4505      -5899.1277    -320616.6186          0.0000          0.0000          0.0000          0.0000          0.0000          0.0000

STAT_0:   640000              83

MOVE_1:   640000          192266           30637         15.9347

ENER_1:   640000     231995.0245     281318.0947     -49323.0702          0.0000          0.0000          0.0000          0.0000          0.0000          0.0000          0.0000

STAT_1:   640000             617

Steps/sec. : 1227.6995
MOVE_0:   650000          194803           97931         50.2718          0.5739           65234           32905         50.4415          0.3390               0               0          0.0000          194707           30960         15.9008

ENER_0:   650000    -229691.6405      33551.7519      -5934.1581    -257309.2342          0.0000          0.0000          0.0000          0.0000          0.0000          0.0000

STAT_0:   650000              73

MOVE_1:   650000          195256           30933         15.8423

ENER_1:   650000     233651.7211     283190.3598     -49538.6387          0.0000          0.0000          0.0000          0.0000          0.0000          0.0000          0.0000

STAT_1:   650000             627

Steps/sec. : 1236.9471
MOVE_0:   660000          197750           99409         50.2700          0.5785           66286           33429         50.4315          0.3216               0               0          0.0000          197673           31356         15.8626

ENER_0:   660000    -241200.9667      24267.5688      -4839.7044    -260628.8311          0.0000          0.0000          0.0000          0.0000          0.0000          0.0000

STAT_0:   660000              74

MOVE_1:   660000          198291           31330         15.8000

ENER_1:   660000     237908.0144     288739.3768     -50831.3624          0.0000          0.0000          0.0000          0.0000          0.0000          0.0000          0.0000

STAT_1:   660000             626

Steps/sec. : 1229.6154
MOVE_0:   670000          200756          100930         50.2750          0.6332           67301           33949         50.4435          0.3110               0               0          0.0000          200626           31899         15.8997

ENER_0:   670000    -233084.5658      27410.6061      -5163.7703    -255331.4017          0.0000          0.0000          0.0000          0.0000          0.0000          0.0000

STAT_0:   670000              74

MOVE_1:   670000          201317           31873         15.8322

ENER_1:   670000     233853.2010     282230.8973     -48377.6962          0.0000          0.0000          0.0000          0.0000          0.0000          0.0000          0.0000

STAT_1:   670000             626

Steps/sec. : 1261.3916
MOVE_0:   680000          203759          102409         50.2599          0.5354           68328           34461         50.4347          0.2962               0               0          0.0000          203627           32346         15.8849

ENER_0:   680000    -272826.7167      33199.9934      -6727.9344    -299298.7757          0.0000          0.0000          0.0000          0.0000          0.0000          0.0000

STAT_0:   680000              81

MOVE_1:   680000          204286           32327         15.8244

ENER_1:   680000     213227.3603     259440.5152     -46213.1548          0.0000          0.0000          0.0000          0.0000          0.0000          0.0000          0.0000

STAT_1:   680000             619

Steps/sec. : 1216.0061
MOVE_0:   690000          206749          103928         50.2677          0.6096           69365           34985         50.4361          0.2895               0               0          0.0000          206609           32878         15.9131

ENER_0:   690000    -198837.5414      22013.2385      -4314.6411    -216536.1389          0.0000          0.0000          0.0000          0.0000          0.0000          0.0000

STAT_0:   690000              66

MOVE_1:   690000          207277           32844         15.8455

ENER_1:   690000     220791.7868     268261.8676     -47470.0807          0.0000          0.0000          0.0000          0.0000          0.0000          0.0000          0.0000

STAT_1:   690000             634

Steps/sec. : 1229.9019
MOVE_0:   700000          209839          105457         50.2561          0.5212           70402           35515         50.4460          0.3010               0               0          0.0000          209561           33283         15.8822

ENER_0:   700000    -315788.1862      36356.0059      -5992.1550    -346152.0370          0.0000          0.0000          0.0000          0.0000          0.0000          0.0000

STAT_0:   700000              85

MOVE_1:   700000          210198           33268         15.8270

ENER_1:   700000     212832.1923     259642.1956     -46810.0033          0.0000          0.0000          0.0000          0.0000          0.0000          0.0000          0.0000

STAT_1:   700000             615

Steps/sec. : 1241.8116
MOVE_0:   710000          212793          106924         50.2479          0.4737           71422           36013         50.4228          0.2331               0               0          0.0000          212534           33581         15.8003

ENER_0:   710000    -337009.0599      34411.3132      -6323.8051    -365096.5680          0.0000          0.0000          0.0000          0.0000          0.0000          0.0000

STAT_0:   710000              88

MOVE_1:   710000          213251           33569         15.7415

ENER_1:   710000     227678.5222     276697.8441     -49019.3219          0.0000          0.0000          0.0000          0.0000          0.0000          0.0000          0.0000

STAT_1:   710000             612

Steps/sec. : 1211.9166
MOVE_0:   720000          215747          108432         50.2589          0.5584           72444           36530         50.4252          0.2669               0               0          0.0000          215474           33992         15.7755

ENER_0:   720000    -258133.5501      29972.1024      -5515.6077    -282590.0448          0.0000          0.0000          0.0000          0.0000          0.0000          0.0000

STAT_0:   720000              78

MOVE_1:   720000          216335           33970         15.7025

ENER_1:   720000     210108.1917     257426.3587     -47318.1669          0.0000          0.0000          0.0000          0.0000          0.0000          0.0000          0.0000

STAT_1:   720000             622

Steps/sec. : 1328.1615
MOVE_0:   730000          218746          109924         50.2519          0.5058           73428           37025         50.4235          0.2785               0               0          0.0000          218518           34382         15.7342

ENER_0:   730000    -221570.9930      31941.4183      -5444.1592    -248068.2521          0.0000          0.0000          0.0000          0.0000          0.0000          0.0000

STAT_0:   730000              70

MOVE_1:   730000          219308           34352         15.6638

ENER_1:   730000     233299.2406     284061.2179     -50761.9773          0.0000          0.0000          0.0000          0.0000          0.0000          0.0000          0.0000

STAT_1:   730000             630

Steps/sec. : 1304.8521
MOVE_0:   740000          221724          111457         50.2684          0.5990           74405           37514         50.4187          0.2519               0               0          0.0000          221584           34930         15.7638

ENER_0:   740000    -206407.2535      24671.0851      -4816.1683    -226262.1703          0.0000          0.0000          0.0000          0.0000          0.0000          0.0000

STAT_0:   740000              69

MOVE_1:   740000          222287           34899         15.7000

ENER_1:   740000     248206.4523     300574.0859     -52367.6336          0.0000          0.0000          0.0000          0.0000          0.0000          0.0000          0.0000

STAT_1:   740000             631

Steps/sec. : 1305.0176
MOVE_0:   750000          224668          112917         50.2595          0.5300           75416           38033         50.4309          0.2981               0               0          0.0000          224618           35517         15.8122

ENER_0:   750000    -285493.1483      24075.1394      -5075.9469    -304492.3408          0.0000          0.0000          0.0000          0.0000          0.0000          0.0000

STAT_0:   750000              81

MOVE_1:   750000          225298           35498         15.7560

ENER_1:   750000     224895.6291     273629.5880     -48733.9589          0.0000          0.0000          0.0000          0.0000          0.0000          0.0000          0.0000

STAT_1:   750000             619

Steps/sec. : 1371.1795
MOVE_0:   760000          227638          114411         50.2601          0.5454           76434           38543         50.4265          0.2770               0               0          0.0000          227553           35885         15.7700

ENER_0:   760000    -213042.7612      24812.0681      -4550.4473    -233304.3820          0.0000          0.0000          0.0000          0.0000          0.0000          0.0000

STAT_0:   760000              69

MOVE_1:   760000          228375           35854         15.6996

ENER_1:   760000     227654.7304     276495.1605     -48840.4301          0.0000          0.0000          0.0000          0.0000          0.0000          0.0000          0.0000

STAT_1:   760000             631

Steps/sec. : 1309.5829
MOVE_0:   770000          230641          115954         50.2747          0.6867           77402           39039         50.4367          0.3362               0               0          0.0000          230600           36407         15.7879

ENER_0:   770000    -219677.5638      30422.6109      -4936.6170    -245163.5578          0.0000          0.0000          0.0000          0.0000          0.0000          0.0000

STAT_0:   770000              71

MOVE_1:   770000          231357           36378         15.7238

ENER_1:   770000     219900.1349     267519.2216     -47619.0867          0.0000          0.0000          0.0000          0.0000          0.0000          0.0000          0.0000

STAT_1:   770000             629

Steps/sec. : 1331.1736
MOVE_0:   780000          233594          117433         50.2723          0.6462           78473           39580         50.4377          0.3774               0               0          0.0000          233608           37061         15.8646

ENER_0:   780000    -160377.7416      30304.9176      -5573.6892    -185108.9700          0.0000          0.0000          0.0000          0.0000          0.0000          0.0000

STAT_0:   780000              63

MOVE_1:   780000          234325           37024         15.8003

ENER_1:   780000     233680.6421     282765.5006     -49084.8585          0.0000          0.0000          0.0000          0.0000          0.0000          0.0000          0.0000

STAT_1:   780000             637

Steps/sec. : 1331.1960
MOVE_0:   790000          236688          118952         50.2569          0.5087           79466           40068         50.4216          0.2635               0               0          0.0000          236510           37520         15.8640

ENER_0:   790000    -297661.4171      26798.2432      -5235.9278    -319223.7326          0.0000          0.0000          0.0000          0.0000          0.0000          0.0000

STAT_0:   790000              83

MOVE_1:   790000          237336           37503         15.8016

ENER_1:   790000     248195.6149     297041.5314     -48845.9165          0.0000          0.0000          0.0000          0.0000          0.0000          0.0000          0.0000

STAT_1:   790000             617

Steps/sec. : 1304.7991
MOVE_0:   800000          239681          120471         50.2631          0.5687           80457           40563         50.4158          0.2490               0               0          0.0000          239518           37905         15.8255

ENER_0:   800000    -270576.5340      41994.1209      -7255.2245    -305315.4303          0.0000          0.0000          0.0000          0.0000          0.0000          0.0000

STAT_0:   800000              81

MOVE_1:   800000          240344           37886         15.7632

ENER_1:   800000     261935.9844     312305.0068     -50369.0223          0.0000          0.0000          0.0000          0.0000          0.0000          0.0000          0.0000

STAT_1:   800000             619

Steps/sec. : 1274.4292
MOVE_0:   810000          242670          121939         50.2489          0.4679           81471           41083         50.4265          0.2952               0               0          0.0000          242543           38222         15.7589

ENER_0:   810000    -340219.6957      35099.8022      -6021.9601    -369297.5378          0.0000          0.0000          0.0000          0.0000          0.0000          0.0000

STAT_0:   810000              88

MOVE_1:   810000          243316           38210         15.7039

ENER_1:   810000     243627.0673     290800.1982     -47173.1309          0.0000          0.0000          0.0000          0.0000          0.0000          0.0000          0.0000

STAT_1:   810000             612

Steps/sec. : 1307.1291
MOVE_0:   820000          245676          123471         50.2577          0.5387           82531           41622         50.4320          0.3387               0               0          0.0000          245517           38730         15.7749

ENER_0:   820000    -218212.6262      32220.2732      -5464.8972    -244968.0022          0.0000          0.0000          0.0000          0.0000          0.0000          0.0000

STAT_0:   820000              72

MOVE_1:   820000          246276           38702         15.7149

ENER_1:   820000     232462.4951     280057.6120     -47595.1169          0.0000          0.0000          0.0000          0.0000          0.0000          0.0000          0.0000

STAT_1:   820000             628

Steps/sec. : 1350.7200
MOVE_0:   830000          248682          124990         50.2610          0.5706           83514           42121         50.4359          0.3634               0               0          0.0000          248602           39323         15.8177

ENER_0:   830000    -147309.1975      27051.5226      -4811.4331    -169549.2869          0.0000          0.0000          0.0000          0.0000          0.0000          0.0000

STAT_0:   830000              60

MOVE_1:   830000          249202           39283         15.7635

ENER_1:   830000     242143.1553     293809.1188     -51665.9634          0.0000          0.0000          0.0000          0.0000          0.0000          0.0000          0.0000

STAT_1:   830000             640

Steps/sec. : 1360.0983
MOVE_0:   840000          251656          126467         50.2539          0.5189           84506           42612         50.4248          0.3032               0               0          0.0000          251586           39943         15.8765

ENER_0:   840000    -193814.3854      33346.5318      -5701.5338    -221459.3834          0.0000          0.0000          0.0000          0.0000          0.0000          0.0000

STAT_0:   840000              70

MOVE_1:   840000          252252           39913         15.8227

ENER_1:   840000     231560.4272     281590.3727     -50029.9455          0.0000          0.0000          0.0000          0.0000          0.0000          0.0000          0.0000

STAT_1:   840000             630

Steps/sec. : 1385.5244
MOVE_0:   850000          254712          128016         50.2591          0.5782           85514           43119         50.4233          0.3227               0               0          0.0000          254536           40477         15.9023

ENER_0:   850000    -221883.5089      23017.1506      -4525.0020    -240375.6575          0.0000          0.0000          0.0000          0.0000          0.0000          0.0000

STAT_0:   850000              71

MOVE_1:   850000          255238           40448         15.8472

ENER_1:   850000     253242.0565     305600.2244     -52358.1679          0.0000          0.0000          0.0000          0.0000          0.0000          0.0000          0.0000

STAT_1:   850000             629

Steps/sec. : 1357.4374
MOVE_0:   860000          257753          129534         50.2551          0.5415           86519           43628         50.4259          0.3322               0               0          0.0000          257474           40728         15.8183

ENER_0:   860000    -259687.8608      26308.2543      -5284.4520    -280711.6631          0.0000          0.0000          0.0000          0.0000          0.0000          0.0000

STAT_0:   860000              75

MOVE_1:   860000          258254           40703         15.7608

ENER_1:   860000     239504.2174     290382.5920     -50878.3747          0.0000          0.0000          0.0000          0.0000          0.0000          0.0000          0.0000

STAT_1:   860000             625

Steps/sec. : 1297.0890
MOVE_0:   870000          260757          131031         50.2502          0.4971           87552           44138         50.4135          0.2663               0               0          0.0000          260392           41098         15.7831

ENER_0:   870000    -317696.3599      24982.0819      -5276.3576    -337402.0841          0.0000          0.0000          0.0000          0.0000          0.0000          0.0000

STAT_0:   870000              85

MOVE_1:   870000          261299           41083         15.7226

ENER_1:   870000     249235.3056     302315.8040     -53080.4985          0.0000          0.0000          0.0000          0.0000          0.0000          0.0000          0.0000

STAT_1:   870000             615

Steps/sec. : 1266.4174
MOVE_0:   880000          263671          132523         50.2607          0.6133           88513           44635         50.4276          0.3450               0               0          0.0000          263381           41501         15.7570

ENER_0:   880000    -231402.0320      33044.1307      -6182.9206    -258263.2422          0.0000          0.0000          0.0000          0.0000          0.0000          0.0000

STAT_0:   880000              75

MOVE_1:   880000          264435           41476         15.6848

ENER_1:   880000     246405.8555     297435.7586     -51029.9031          0.0000          0.0000          0.0000          0.0000          0.0000          0.0000          0.0000

STAT_1:   880000             625

Steps/sec. : 1362.1978
MOVE_0:   890000          266671          134013         50.2541          0.5604           89536           45150         50.4266          0.3387               0               0          0.0000          266408           41934         15.7405

ENER_0:   890000    -215883.7113      31748.5688      -5740.3026    -241891.9775          0.0000          0.0000          0.0000          0.0000          0.0000          0.0000

STAT_0:   890000              70

MOVE_1:   890000          267385           41904         15.6718

ENER_1:   890000     257052.6071     310248.4244     -53195.8174          0.0000          0.0000          0.0000          0.0000          0.0000          0.0000          0.0000

STAT_1:   890000             630

Steps/sec. : 1515.5479
MOVE_0:   900000          269682          135503         50.2455          0.4858           90515           45633         50.4148          0.2688               0               0          0.0000          269377           42445         15.7567

ENER_0:   900000    -301990.8027      38573.3637      -7444.5465    -333119.6200          0.0000          0.0000          0.0000          0.0000          0.0000          0.0000

STAT_0:   900000              85

MOVE_1:   900000          270426           42430         15.6901

ENER_1:   900000     256685.1495     307270.5442     -50585.3947          0.0000          0.0000          0.0000          0.0000          0.0000          0.0000          0.0000

STAT_1:   900000             615

Steps/sec. : 1532.6143
MOVE_0:   910000          272691          137010         50.2437          0.4850           91508           46134         50.4153          0.2784               0               0          0.0000          272415           42852         15.7304

ENER_0:   910000    -301214.2958      32315.4794      -6119.3133    -327410.4619          0.0000          0.0000          0.0000          0.0000          0.0000          0.0000

STAT_0:   910000              84

MOVE_1:   910000          273386           42836         15.6687

ENER_1:   910000     236499.6934     284810.7687     -48311.0753          0.0000          0.0000          0.0000          0.0000          0.0000          0.0000          0.0000

STAT_1:   910000             616

Steps/sec. : 1518.7809
MOVE_0:   920000          275719          138541         50.2472          0.5215           92499           46644         50.4265          0.3212               0               0          0.0000          275311           43171         15.6808

ENER_0:   920000    -281612.5587      28223.8130      -5592.0194    -304244.3523          0.0000          0.0000          0.0000          0.0000          0.0000          0.0000

STAT_0:   920000              80

MOVE_1:   920000          276471           43151         15.6078

ENER_1:   920000     225495.0316     273543.1862     -48048.1545          0.0000          0.0000          0.0000          0.0000          0.0000          0.0000          0.0000

STAT_1:   920000             620

Steps/sec. : 1468.4862
MOVE_0:   930000          278716          140074         50.2569          0.5744           93522           47167         50.4341          0.3508               0               0          0.0000          278322           43750         15.7192

ENER_0:   930000    -134101.5047      19538.9649      -3672.1114    -149968.3581          0.0000          0.0000          0.0000          0.0000          0.0000          0.0000

STAT_0:   930000              56

MOVE_1:   930000          279440           43706         15.6406

ENER_1:   930000     244026.2286     296217.7432     -52191.5146          0.0000          0.0000          0.0000          0.0000          0.0000          0.0000          0.0000

STAT_1:   930000             644

Steps/sec. : 1670.1503
MOVE_0:   940000          281722          141551         50.2449          0.4514           94521           47659         50.4216          0.3012               0               0          0.0000          281358           44172         15.6996

ENER_0:   940000    -268405.2781      40513.9566      -6796.7178    -302122.5168          0.0000          0.0000          0.0000          0.0000          0.0000          0.0000

STAT_0:   940000              80

MOVE_1:   940000          282399           44152         15.6346

ENER_1:   940000     263861.6396     317821.4870     -53959.8475          0.0000          0.0000          0.0000          0.0000          0.0000          0.0000          0.0000

STAT_1:   940000             620

Steps/sec. : 1669.1236
MOVE_0:   950000          284625          143067         50.2651          0.6810           95552           48174         50.4165          0.2738               0               0          0.0000          284324           44674         15.7124

ENER_0:   950000    -211294.8425      26767.3762      -5142.6964    -232919.5222          0.0000          0.0000          0.0000          0.0000          0.0000          0.0000

STAT_0:   950000              71

MOVE_1:   950000          285499           44645         15.6375

ENER_1:   950000     255432.8529     308739.5280     -53306.6751          0.0000          0.0000          0.0000          0.0000          0.0000          0.0000          0.0000

STAT_1:   950000             629

Steps/sec. : 1762.1437
MOVE_0:   960000          287677          144579         50.2574          0.5970           96547           48680         50.4210          0.3082               0               0          0.0000          287279           45121         15.7063

ENER_0:   960000    -244562.8531      23869.4606      -4555.8278    -263876.4859          0.0000          0.0000          0.0000          0.0000          0.0000          0.0000

STAT_0:   960000              75

MOVE_1:   960000          288497           45096         15.6314

ENER_1:   960000     250929.2090     304272.0658     -53342.8569          0.0000          0.0000          0.0000          0.0000          0.0000          0.0000          0.0000

STAT_1:   960000             625

Steps/sec. : 1769.6735
MOVE_0:   970000          290748          146135         50.2617          0.6621           97513           49172         50.4261          0.3418               0               0          0.0000          290250           45639         15.7240

ENER_0:   970000    -157206.2722      24912.9536      -5340.7770    -176778.4488          0.0000          0.0000          0.0000          0.0000          0.0000          0.0000

STAT_0:   970000              60

MOVE_1:   970000          291489           45599         15.6435

ENER_1:   970000     258972.9127     312967.3168     -53994.4041          0.0000          0.0000          0.0000          0.0000          0.0000          0.0000          0.0000

STAT_1:   970000             640

Steps/sec. : 1799.3243
MOVE_0:   980000          293770          147627         50.2526          0.5705           98588           49707         50.4189          0.3150               0               0          0.0000          293117           46111         15.7313

ENER_0:   980000    -238608.1757      36494.0632      -6386.4204    -268715.8185          0.0000          0.0000          0.0000          0.0000          0.0000          0.0000

STAT_0:   980000              75

MOVE_1:   980000          294525           46086         15.6476

ENER_1:   980000     233068.7985     282500.6657     -49431.8672          0.0000          0.0000          0.0000          0.0000          0.0000          0.0000          0.0000

STAT_1:   980000             625

Steps/sec. : 1788.4173
MOVE_0:   990000          296773          149139         50.2536          0.6013           99579           50205         50.4173          0.3006               0               0          0.0000          296125           46588         15.7325

ENER_0:   990000    -224239.5948      28757.7023      -5414.1467    -247583.1504          0.0000          0.0000          0.0000          0.0000          0.0000          0.0000

STAT_0:   990000              74

MOVE_1:   990000          297523           46562         15.6499

ENER_1:   990000     232727.9654     282146.9715     -49419.0061          0.0000          0.0000          0.0000          0.0000          0.0000          0.0000          0.0000

STAT_1:   990000             626

Steps/sec. : 1745.9923
MOVE_0:  1000000          299725          150617         50.2517          0.5900          100524           50688         50.4238          0.3515               0               0          0.0000          299161           47081         15.7377

ENER_0:  1000000    -269666.8913      36417.6794      -6366.2611    -299718.3096          0.0000          0.0000          0.0000          0.0000          0.0000          0.0000

STAT_0:  1000000              79

MOVE_1:  1000000          300590           47060         15.6559

ENER_1:  1000000     234158.5063     283257.7549     -49099.2486          0.0000          0.0000          0.0000          0.0000          0.0000          0.0000          0.0000

STAT_1:  1000000             621

Simulation Time (total): 533.0726sec.
GOMC Serial Version 1.9
Completed at: Sat Apr 22 21:53:59 2017
On hostname: potoff39.eng.wayne.edu
