GOMC Serial Version 1.9
Started at: Fri Dec  9 11:31:52 2016
On hostname: potoff39.eng.wayne.edu

Total number of CPUs: 4
Total number of CPUs available: 4
Model name: Intel(R) Core(TM) i5-2500K CPU @ 3.30GHz

System name: Linux
Release: 2.6.32-642.4.2.el6.x86_64
Version: #1 SMP Tue Aug 23 19:58:13 UTC 2016
Kernel Architecture: x86_64
Total Ram: 7856.3MB
Used Ram: 5531.3MB
Working in the current directory /home3/soroush/Desktop/validation/GOMC_Serial-development_1.90/GOMC_Examples-master/GCMC/hexadecane_martini/run2a_bridge

------------------------------------------------------
This code was compiled to support the grand canonical ensemble.
------------------------------------------------------

REMINDER: MARTINI force field has been selected!
Temperature of system has been set to 680.0 K 
By default intra box swap frequency has been set to zero
Warning: Ewald method would not be used to calculate electrostatic energy!
Warning: Long Range Correction will be disabled for shift and switch potential!
Reading from CHARMM-Style Parameter File file: ./../../../common/Par_Martini_Charmm.inp

Finished reading CHARMM-Style Parameter File file: ./../../../common/Par_Martini_Charmm.inp

Reading from Box 1 PDB coordinate file file: ./STEP3_START_AC16_liq_BOX_0.pdb

Finished reading Box 1 PDB coordinate file file: ./STEP3_START_AC16_liq_BOX_0.pdb

Reading from Box 2 PDB coordinate file file: ./STEP3_START_AC16_reservoir_BOX_1.pdb

Finished reading Box 2 PDB coordinate file file: ./STEP3_START_AC16_reservoir_BOX_1.pdb

Random number seed: 625610944

Molecules in PSF:

Molecule Kind: AC16
Idx	name	type	charge	mass
0	C1A	C1	0.0	72.0
1	C2A	C1	0.0	72.0
2	C3A	C1	0.0	72.0
3	C4A	C1	0.0	72.0

Bonds:
[0 1] [1 2] [2 3] 

Angles:
[0 1 2] [1 2 3] 

Dihedrals:
[0 1 2 3] 

REMINDER! 1-3 Interaction and more is ON for Martini forcefield


########################## INITIAL SIMULATION ENERGY ##########################
ETITLE_BOX_0    TOTAL           INTRA(B)        INTRA(N)        INTER(LJ)       LRC             TOTAL_ELECT     REAL            RECIP           SELF            CORR            

ENERGY_BOX_0    -402276.9480    75173.8053      -9634.0848      -467816.6685    0.0000          0.0000          0.0000          0.0000          0.0000          -0.0000         

ETITLE_BOX_1    TOTAL           INTRA(B)        INTRA(N)        INTER(LJ)       LRC             TOTAL_ELECT     REAL            RECIP           SELF            CORR            

ENERGY_BOX_1    393252.4476     451054.0084     -57801.5608     0.0000          0.0000          0.0000          0.0000          0.0000          0.0000          -0.0000         

###############################################################################

############################# STARTING SIMULATION #############################
MTITLE_BOX_0    DISTRY          DISACCEPT       DISACCEPT%      DISMAX          ROTATE          ROTACCEPT       ROTACCEPT%      ROTMAX          INTRASWAP       INTACCEPT       INTACCEPT%      TRANSFER        TRANACCEPT      TRANACCEPT%     STEP            

ETITLE_BOX_0    TOTAL           INTRA(B)        INTRA(N)        INTER(LJ)       LRC             TOTAL_ELECT     REAL            RECIP           SELF            CORR            
STITLE_BOX_0    TOTALMOL        

MTITLE_BOX_1    TRANSFER        TRANACCEPT      TRANACCEPT%     STEP            

ETITLE_BOX_1    TOTAL           INTRA(B)        INTRA(N)        INTER(LJ)       LRC             TOTAL_ELECT     REAL            RECIP           SELF            CORR            
STITLE_BOX_1    TOTALMOL        

Printed combined psf to file T_680_K_u_6365_r3a_l.psf
MOVE_BOX_0      3008            1158            38.4973         0.5254          1001            462             46.1538         0.2647          0               0               0.0000          2980            347             11.6443         10000           

ENERGY_BOX_0    -275137.3865    29040.8273      -5282.2450      -298895.9688    0.0000          0.0000          0.0000          0.0000          0.0000          0.0000          

STAT_BOX_0      79              

MOVE_BOX_1      3011            326             10.8270         10000           

ENERGY_BOX_1    333821.1403     389077.4298     -55256.2895     0.0000          0.0000          0.0000          0.0000          0.0000          0.0000          0.0000          

STAT_BOX_1      621             

Steps/sec. : 3836.8483
MOVE_BOX_0      5997            2663            44.4055         0.5441          1965            966             49.1603         0.3255          0               0               0.0000          5982            867             14.4935         20000           

ENERGY_BOX_0    -268253.2837    36238.4314      -6126.8400      -298364.8751    0.0000          0.0000          0.0000          0.0000          0.0000          0.0000          

STAT_BOX_0      80              

MOVE_BOX_1      6056            847             13.9861         20000           

ENERGY_BOX_1    276321.9906     329909.6589     -53587.6683     0.0000          0.0000          0.0000          0.0000          0.0000          0.0000          0.0000          

STAT_BOX_1      620             

Steps/sec. : 4315.0446
MOVE_BOX_0      8957            4151            46.3436         0.5610          2954            1456            49.2891         0.2888          0               0               0.0000          9099            1345            14.7818         30000           

ENERGY_BOX_0    -252680.7018    35824.6430      -6571.6212      -281933.7236    0.0000          0.0000          0.0000          0.0000          0.0000          0.0000          

STAT_BOX_0      77              

MOVE_BOX_1      8990            1322            14.7052         30000           

ENERGY_BOX_1    290307.7781     348596.4330     -58288.6549     0.0000          0.0000          0.0000          0.0000          0.0000          0.0000          0.0000          

STAT_BOX_1      623             

Steps/sec. : 4252.4369
MOVE_BOX_0      11846           5622            47.4591         0.6483          3924            1957            49.8726         0.3588          0               0               0.0000          12211           1918            15.7071         40000           

ENERGY_BOX_0    -139458.5676    20461.3584      -3893.6013      -156026.3247    0.0000          0.0000          0.0000          0.0000          0.0000          0.0000          

STAT_BOX_0      59              

MOVE_BOX_1      12019           1877            15.6169         40000           

ENERGY_BOX_1    254009.7442     308321.3468     -54311.6026     0.0000          0.0000          0.0000          0.0000          0.0000          0.0000          0.0000          

STAT_BOX_1      641             

Steps/sec. : 4433.0897
MOVE_BOX_0      14709           7062            48.0114         0.6424          4928            2454            49.7971         0.2741          0               0               0.0000          15327           2389            15.5869         50000           

ENERGY_BOX_0    -129567.5163    27207.6638      -4744.4657      -152030.7144    0.0000          0.0000          0.0000          0.0000          0.0000          0.0000          

STAT_BOX_0      57              

MOVE_BOX_1      15036           2346            15.6026         50000           

ENERGY_BOX_1    249010.6937     301964.6860     -52953.9923     0.0000          0.0000          0.0000          0.0000          0.0000          0.0000          0.0000          

STAT_BOX_1      643             

Steps/sec. : 4255.9294
MOVE_BOX_0      17667           8529            48.2764         0.5373          5913            2966            50.1607         0.3563          0               0               0.0000          18339           3074            16.7621         60000           

ENERGY_BOX_0    -252548.9371    32309.2053      -6367.3511      -278490.7913    0.0000          0.0000          0.0000          0.0000          0.0000          0.0000          

STAT_BOX_0      80              

MOVE_BOX_1      18081           3054            16.8907         60000           

ENERGY_BOX_1    233778.3570     283073.3234     -49294.9664     0.0000          0.0000          0.0000          0.0000          0.0000          0.0000          0.0000          

STAT_BOX_1      620             

Steps/sec. : 4649.9622
MOVE_BOX_0      20596           10012           48.6114         0.5790          6888            3443            49.9855         0.2545          0               0               0.0000          21404           3631            16.9641         70000           

ENERGY_BOX_0    -271691.1045    33613.5012      -5983.8038      -299320.8019    0.0000          0.0000          0.0000          0.0000          0.0000          0.0000          

STAT_BOX_0      81              

MOVE_BOX_1      21112           3612            17.1088         70000           

ENERGY_BOX_1    223296.8305     271076.9819     -47780.1514     0.0000          0.0000          0.0000          0.0000          0.0000          0.0000          0.0000          

STAT_BOX_1      619             

Steps/sec. : 4282.5782
MOVE_BOX_0      23568           11488           48.7441         0.5357          7921            3973            50.1578         0.3085          0               0               0.0000          24369           4143            17.0011         80000           

ENERGY_BOX_0    -269376.0814    28233.6404      -5701.0082      -291908.7135    0.0000          0.0000          0.0000          0.0000          0.0000          0.0000          

STAT_BOX_0      80              

MOVE_BOX_1      24142           4123            17.0781         80000           

ENERGY_BOX_1    232135.4737     281639.0232     -49503.5494     0.0000          0.0000          0.0000          0.0000          0.0000          0.0000          0.0000          

STAT_BOX_1      620             

Steps/sec. : 4290.1222
MOVE_BOX_0      26592           12980           48.8117         0.4501          8925            4480            50.1961         0.3234          0               0               0.0000          27410           4467            16.2970         90000           

ENERGY_BOX_0    -304714.1044    36707.2111      -6488.6677      -334932.6478    0.0000          0.0000          0.0000          0.0000          0.0000          0.0000          

STAT_BOX_0      84              

MOVE_BOX_1      27073           4451            16.4407         90000           

ENERGY_BOX_1    248241.0814     300009.6669     -51768.5855     0.0000          0.0000          0.0000          0.0000          0.0000          0.0000          0.0000          

STAT_BOX_1      616             

Steps/sec. : 4087.0643
MOVE_BOX_0      29603           14527           49.0727         0.5751          9991            5015            50.1952         0.3149          0               0               0.0000          30384           4927            16.2158         100000          

ENERGY_BOX_0    -240405.1873    34798.0094      -5976.9630      -269226.2337    0.0000          0.0000          0.0000          0.0000          0.0000          0.0000          

STAT_BOX_0      78              

MOVE_BOX_1      30022           4905            16.3380         100000          

ENERGY_BOX_1    237462.8640     288107.6424     -50644.7784     0.0000          0.0000          0.0000          0.0000          0.0000          0.0000          0.0000          

STAT_BOX_1      622             

Steps/sec. : 4355.4464
MOVE_BOX_0      32603           16062           49.2654         0.6450          10948           5500            50.2375         0.3492          0               0               0.0000          33437           5573            16.6672         110000          

ENERGY_BOX_0    -176310.9957    19465.5025      -3828.1952      -191948.3030    0.0000          0.0000          0.0000          0.0000          0.0000          0.0000          

STAT_BOX_0      63              

MOVE_BOX_1      33012           5536            16.7697         110000          

ENERGY_BOX_1    243507.6856     294516.2143     -51008.5287     0.0000          0.0000          0.0000          0.0000          0.0000          0.0000          0.0000          

STAT_BOX_1      637             

Steps/sec. : 4510.8153
MOVE_BOX_0      35640           17539           49.2116         0.4638          11969           6011            50.2214         0.3401          0               0               0.0000          36494           6161            16.8822         120000          

ENERGY_BOX_0    -282819.7561    37599.4805      -6482.9226      -313936.3140    0.0000          0.0000          0.0000          0.0000          0.0000          0.0000          

STAT_BOX_0      83              

MOVE_BOX_1      35897           6144            17.1156         120000          

ENERGY_BOX_1    228185.0061     277708.2166     -49523.2104     0.0000          0.0000          0.0000          0.0000          0.0000          0.0000          0.0000          

STAT_BOX_1      617             

Steps/sec. : 4567.6162
MOVE_BOX_0      38576           19048           49.3779         0.5991          12958           6500            50.1621         0.2929          0               0               0.0000          39518           6616            16.7417         130000          

ENERGY_BOX_0    -226982.8972    26854.4678      -5158.4803      -248678.8847    0.0000          0.0000          0.0000          0.0000          0.0000          0.0000          

STAT_BOX_0      73              

MOVE_BOX_1      38948           6589            16.9174         130000          

ENERGY_BOX_1    223721.9323     272658.4595     -48936.5272     0.0000          0.0000          0.0000          0.0000          0.0000          0.0000          0.0000          

STAT_BOX_1      627             

Steps/sec. : 4121.7768
MOVE_BOX_0      41576           20545           49.4155         0.5548          13914           6988            50.2228         0.3226          0               0               0.0000          42506           7107            16.7200         140000          

ENERGY_BOX_0    -233522.2173    37725.3942      -6425.5582      -264822.0533    0.0000          0.0000          0.0000          0.0000          0.0000          0.0000          

STAT_BOX_0      75              

MOVE_BOX_1      42004           7082            16.8603         140000          

ENERGY_BOX_1    231067.6176     280687.0389     -49619.4213     0.0000          0.0000          0.0000          0.0000          0.0000          0.0000          0.0000          

STAT_BOX_1      625             

Steps/sec. : 4195.8191
MOVE_BOX_0      44568           22105           49.5984         0.7370          14884           7484            50.2822         0.3527          0               0               0.0000          45542           7931            17.4147         150000          

ENERGY_BOX_0    -138706.6254    24813.1039      -4148.8608      -159370.8685    0.0000          0.0000          0.0000          0.0000          0.0000          0.0000          

STAT_BOX_0      55              

MOVE_BOX_1      45006           7886            17.5221         150000          

ENERGY_BOX_1    229334.4196     279843.4956     -50509.0760     0.0000          0.0000          0.0000          0.0000          0.0000          0.0000          0.0000          

STAT_BOX_1      645             

Steps/sec. : 4907.6960
MOVE_BOX_0      47569           23574           49.5575         0.5405          15829           7948            50.2116         0.2864          0               0               0.0000          48535           8542            17.5997         160000          

ENERGY_BOX_0    -268113.4896    33502.5654      -6346.3395      -295269.7155    0.0000          0.0000          0.0000          0.0000          0.0000          0.0000          

STAT_BOX_0      77              

MOVE_BOX_1      48067           8519            17.7232         160000          

ENERGY_BOX_1    202809.4264     248018.0749     -45208.6485     0.0000          0.0000          0.0000          0.0000          0.0000          0.0000          0.0000          

STAT_BOX_1      623             

Steps/sec. : 4455.2696
MOVE_BOX_0      50537           25065           49.5973         0.5485          16811           8450            50.2647         0.3527          0               0               0.0000          51609           8952            17.3458         170000          

ENERGY_BOX_0    -272802.6858    33205.9928      -5578.1149      -300430.5638    0.0000          0.0000          0.0000          0.0000          0.0000          0.0000          

STAT_BOX_0      80              

MOVE_BOX_1      51043           8932            17.4990         170000          

ENERGY_BOX_1    223641.6140     271870.0168     -48228.4028     0.0000          0.0000          0.0000          0.0000          0.0000          0.0000          0.0000          

STAT_BOX_1      620             

Steps/sec. : 4056.0515
MOVE_BOX_0      53532           26593           49.6768         0.6521          17831           8963            50.2664         0.3283          0               0               0.0000          54586           9445            17.3030         180000          

ENERGY_BOX_0    -261867.4710    30064.8897      -5582.8718      -286349.4888    0.0000          0.0000          0.0000          0.0000          0.0000          0.0000          

STAT_BOX_0      79              

MOVE_BOX_1      54051           9424            17.4354         180000          

ENERGY_BOX_1    217669.5964     264454.1883     -46784.5919     0.0000          0.0000          0.0000          0.0000          0.0000          0.0000          0.0000          

STAT_BOX_1      621             

Steps/sec. : 4219.6621
MOVE_BOX_0      56542           28084           49.6693         0.5693          18802           9455            50.2872         0.3153          0               0               0.0000          57587           9917            17.2209         190000          

ENERGY_BOX_0    -223077.1143    43030.0039      -7116.6502      -258990.4680    0.0000          0.0000          0.0000          0.0000          0.0000          0.0000          

STAT_BOX_0      75              

MOVE_BOX_1      57069           9892            17.3334         190000          

ENERGY_BOX_1    233041.9703     282448.9702     -49406.9999     0.0000          0.0000          0.0000          0.0000          0.0000          0.0000          0.0000          

STAT_BOX_1      625             

Steps/sec. : 4142.0815
MOVE_BOX_0      59587           29624           49.7155         0.6159          19769           9936            50.2605         0.3121          0               0               0.0000          60596           10486           17.3048         200000          

ENERGY_BOX_0    -251350.2808    35482.1217      -5956.9554      -280875.4471    0.0000          0.0000          0.0000          0.0000          0.0000          0.0000          

STAT_BOX_0      78              

MOVE_BOX_1      60048           10464           17.4261         200000          

ENERGY_BOX_1    225576.8942     274326.9789     -48750.0847     0.0000          0.0000          0.0000          0.0000          0.0000          0.0000          0.0000          

STAT_BOX_1      622             

Steps/sec. : 4293.1117
MOVE_BOX_0      62522           31065           49.6865         0.4954          20801           10451           50.2428         0.2522          0               0               0.0000          63608           10776           16.9413         210000          

ENERGY_BOX_0    -310330.3911    35914.1143      -6820.2137      -339424.2916    0.0000          0.0000          0.0000          0.0000          0.0000          0.0000          

STAT_BOX_0      85              

MOVE_BOX_1      63069           10761           17.0623         210000          

ENERGY_BOX_1    241536.4385     291511.7914     -49975.3529     0.0000          0.0000          0.0000          0.0000          0.0000          0.0000          0.0000          

STAT_BOX_1      615             

Steps/sec. : 3859.2618
MOVE_BOX_0      65545           32588           49.7185         0.5229          21806           10968           50.2981         0.3110          0               0               0.0000          66592           11145           16.7362         220000          

ENERGY_BOX_0    -281018.6058    36939.0947      -6306.7477      -311650.9527    0.0000          0.0000          0.0000          0.0000          0.0000          0.0000          

STAT_BOX_0      82              

MOVE_BOX_1      66057           11127           16.8445         220000          

ENERGY_BOX_1    225001.3987     273451.1186     -48449.7199     0.0000          0.0000          0.0000          0.0000          0.0000          0.0000          0.0000          

STAT_BOX_1      618             

Steps/sec. : 3997.4096
MOVE_BOX_0      68572           34108           49.7404         0.5241          22855           11484           50.2472         0.2383          0               0               0.0000          69531           11469           16.4948         230000          

ENERGY_BOX_0    -253365.1214    34335.8561      -6862.0212      -280838.9563    0.0000          0.0000          0.0000          0.0000          0.0000          0.0000          

STAT_BOX_0      76              

MOVE_BOX_1      69042           11445           16.5769         230000          

ENERGY_BOX_1    226385.0072     275166.3384     -48781.3313     0.0000          0.0000          0.0000          0.0000          0.0000          0.0000          0.0000          

STAT_BOX_1      624             

Steps/sec. : 3986.9310
MOVE_BOX_0      71601           35622           49.7507         0.4946          23820           11978           50.2855         0.2859          0               0               0.0000          72499           11870           16.3726         240000          

ENERGY_BOX_0    -302993.4218    36991.0368      -6579.4665      -333404.9922    0.0000          0.0000          0.0000          0.0000          0.0000          0.0000          

STAT_BOX_0      83              

MOVE_BOX_1      72080           11853           16.4442         240000          

ENERGY_BOX_1    222670.5110     271400.9501     -48730.4391     0.0000          0.0000          0.0000          0.0000          0.0000          0.0000          0.0000          

STAT_BOX_1      617             

Steps/sec. : 4042.2121
MOVE_BOX_0      74578           37146           49.8083         0.6028          24827           12477           50.2558         0.2575          0               0               0.0000          75528           12359           16.3635         250000          

ENERGY_BOX_0    -191657.4805    31706.9846      -5529.5704      -217834.8947    0.0000          0.0000          0.0000          0.0000          0.0000          0.0000          

STAT_BOX_0      67              

MOVE_BOX_1      75067           12326           16.4200         250000          

ENERGY_BOX_1    233095.5671     284251.2480     -51155.6809     0.0000          0.0000          0.0000          0.0000          0.0000          0.0000          0.0000          

STAT_BOX_1      633             

Steps/sec. : 4163.7330
MOVE_BOX_0      77526           38613           49.8065         0.5608          25820           12992           50.3176         0.3172          0               0               0.0000          78567           13014           16.5642         260000          

ENERGY_BOX_0    -248190.9368    33638.1452      -5854.6357      -275974.4464    0.0000          0.0000          0.0000          0.0000          0.0000          0.0000          

STAT_BOX_0      76              

MOVE_BOX_1      78087           12990           16.6353         260000          

ENERGY_BOX_1    250312.4995     302760.3807     -52447.8812     0.0000          0.0000          0.0000          0.0000          0.0000          0.0000          0.0000          

STAT_BOX_1      624             

Steps/sec. : 4428.0525
MOVE_BOX_0      80514           40119           49.8286         0.5759          26836           13494           50.2832         0.2637          0               0               0.0000          81630           13428           16.4498         270000          

ENERGY_BOX_0    -279401.9335    37312.4830      -6693.8877      -310020.5288    0.0000          0.0000          0.0000          0.0000          0.0000          0.0000          

STAT_BOX_0      80              

MOVE_BOX_1      81020           13408           16.5490         270000          

ENERGY_BOX_1    232405.0200     281681.3394     -49276.3194     0.0000          0.0000          0.0000          0.0000          0.0000          0.0000          0.0000          

STAT_BOX_1      620             

Steps/sec. : 4060.9305
MOVE_BOX_0      83548           41652           49.8540         0.6244          27836           14005           50.3125         0.3140          0               0               0.0000          84760           13940           16.4464         280000          

ENERGY_BOX_0    -158158.2395    21672.5733      -4045.3344      -175785.4783    0.0000          0.0000          0.0000          0.0000          0.0000          0.0000          

STAT_BOX_0      61              

MOVE_BOX_1      83856           13901           16.5772         280000          

ENERGY_BOX_1    231982.4181     282809.3169     -50826.8988     0.0000          0.0000          0.0000          0.0000          0.0000          0.0000          0.0000          

STAT_BOX_1      639             

Steps/sec. : 4327.0019
MOVE_BOX_0      86499           43127           49.8584         0.6113          28825           14503           50.3140         0.3203          0               0               0.0000          87785           14646           16.6839         290000          

ENERGY_BOX_0    -86018.5113     19775.3710      -3647.7857      -102146.0966    0.0000          0.0000          0.0000          0.0000          0.0000          0.0000          

STAT_BOX_0      46              

MOVE_BOX_1      86891           14592           16.7935         290000          

ENERGY_BOX_1    239560.9064     292084.9500     -52524.0435     0.0000          0.0000          0.0000          0.0000          0.0000          0.0000          0.0000          

STAT_BOX_1      654             

Steps/sec. : 4524.4587
MOVE_BOX_0      89526           44873           50.1229         2.2362          29791           15075           50.6025         1.4556          0               0               0.0000          90803           16518           18.1910         300000          

ENERGY_BOX_0    -4181.2045      3188.7186       -543.2081       -6826.7150      0.0000          0.0000          0.0000          0.0000          0.0000          0.0000          

STAT_BOX_0      8               

MOVE_BOX_1      89880           16426           18.2755         300000          

ENERGY_BOX_1    278458.7915     334734.9355     -56276.1440     0.0000          0.0000          0.0000          0.0000          0.0000          0.0000          0.0000          

STAT_BOX_1      692             

Steps/sec. : 8950.4606
MOVE_BOX_0      92512           46275           50.0205         0.8047          30773           15526           50.4533         0.5023          0               0               0.0000          93793           17989           19.1795         310000          

ENERGY_BOX_0    -42350.4884     8398.2007       -1821.4578      -48927.2313     0.0000          0.0000          0.0000          0.0000          0.0000          0.0000          

STAT_BOX_0      30              

MOVE_BOX_1      92922           17919           19.2839         310000          

ENERGY_BOX_1    255115.1504     308404.4551     -53289.3047     0.0000          0.0000          0.0000          0.0000          0.0000          0.0000          0.0000          

STAT_BOX_1      670             

Steps/sec. : 7064.8858
MOVE_BOX_0      95598           47779           49.9791         0.5953          31803           16031           50.4072         0.3586          0               0               0.0000          96678           18731           19.3746         320000          

ENERGY_BOX_0    -177753.7190    37451.3630      -6069.5014      -209135.5806    0.0000          0.0000          0.0000          0.0000          0.0000          0.0000          

STAT_BOX_0      68              

MOVE_BOX_1      95921           18699           19.4942         320000          

ENERGY_BOX_1    234123.8188     283779.5598     -49655.7410     0.0000          0.0000          0.0000          0.0000          0.0000          0.0000          0.0000          

STAT_BOX_1      632             

Steps/sec. : 4822.5612
MOVE_BOX_0      98595           49270           49.9721         0.5231          32802           16524           50.3750         0.3016          0               0               0.0000          99699           19326           19.3843         330000          

ENERGY_BOX_0    -261058.4767    41638.2311      -6776.8413      -295919.8666    0.0000          0.0000          0.0000          0.0000          0.0000          0.0000          

STAT_BOX_0      81              

MOVE_BOX_1      98904           19307           19.5209         330000          

ENERGY_BOX_1    253815.1006     306265.6459     -52450.5453     0.0000          0.0000          0.0000          0.0000          0.0000          0.0000          0.0000          

STAT_BOX_1      619             

Steps/sec. : 4443.7669
MOVE_BOX_0      101584          50785           49.9931         0.5823          33857           17054           50.3707         0.2954          0               0               0.0000          102649          19709           19.2004         340000          

ENERGY_BOX_0    -187577.4041    27122.1061      -4972.3995      -209727.1108    0.0000          0.0000          0.0000          0.0000          0.0000          0.0000          

STAT_BOX_0      69              

MOVE_BOX_1      101910          19678           19.3092         340000          

ENERGY_BOX_1    246378.1468     298346.5038     -51968.3569     0.0000          0.0000          0.0000          0.0000          0.0000          0.0000          0.0000          

STAT_BOX_1      631             

Steps/sec. : 4116.2141
MOVE_BOX_0      104639          52310           49.9909         0.5705          34889           17569           50.3568         0.2822          0               0               0.0000          105591          20521           19.4344         350000          

ENERGY_BOX_0    -243279.5115    22325.2681      -4469.5372      -261135.2424    0.0000          0.0000          0.0000          0.0000          0.0000          0.0000          

STAT_BOX_0      74              

MOVE_BOX_1      104881          20495           19.5412         350000          

ENERGY_BOX_1    229259.1727     278907.8298     -49648.6571     0.0000          0.0000          0.0000          0.0000          0.0000          0.0000          0.0000          

STAT_BOX_1      626             

Steps/sec. : 5068.4028
MOVE_BOX_0      107640          53809           49.9898         0.5506          35847           18050           50.3529         0.2828          0               0               0.0000          108713          20980           19.2985         360000          

ENERGY_BOX_0    -189382.4360    25106.1040      -4618.4943      -209870.0458    0.0000          0.0000          0.0000          0.0000          0.0000          0.0000          

STAT_BOX_0      67              

MOVE_BOX_1      107800          20947           19.4314         360000          

ENERGY_BOX_1    226216.4349     275663.5888     -49447.1539     0.0000          0.0000          0.0000          0.0000          0.0000          0.0000          0.0000          

STAT_BOX_1      633             

Steps/sec. : 4188.9852
MOVE_BOX_0      110643          55314           49.9932         0.5377          36887           18575           50.3565         0.2684          0               0               0.0000          111715          21346           19.1076         370000          

ENERGY_BOX_0    -208885.5834    27942.3853      -5081.4958      -231746.4729    0.0000          0.0000          0.0000          0.0000          0.0000          0.0000          

STAT_BOX_0      69              

MOVE_BOX_1      110755          21315           19.2452         370000          

ENERGY_BOX_1    226530.7057     276011.2791     -49480.5734     0.0000          0.0000          0.0000          0.0000          0.0000          0.0000          0.0000          

STAT_BOX_1      631             

Steps/sec. : 4089.7220
MOVE_BOX_0      113530          56792           50.0238         0.6114          37926           19109           50.3850         0.3161          0               0               0.0000          114738          22223           19.3685         380000          

ENERGY_BOX_0    -284820.2386    33460.1491      -5832.7411      -312447.6465    0.0000          0.0000          0.0000          0.0000          0.0000          0.0000          

STAT_BOX_0      80              

MOVE_BOX_1      113806          22203           19.5095         380000          

ENERGY_BOX_1    229326.4647     278713.6533     -49387.1887     0.0000          0.0000          0.0000          0.0000          0.0000          0.0000          0.0000          

STAT_BOX_1      620             

Steps/sec. : 4977.5315
MOVE_BOX_0      116510          58267           50.0103         0.5288          38891           19584           50.3561         0.2468          0               0               0.0000          117749          22687           19.2673         390000          

ENERGY_BOX_0    -247333.4499    27988.8603      -5045.3182      -270276.9919    0.0000          0.0000          0.0000          0.0000          0.0000          0.0000          

STAT_BOX_0      76              

MOVE_BOX_1      116850          22663           19.3950         390000          

ENERGY_BOX_1    245916.7602     297329.4295     -51412.6693     0.0000          0.0000          0.0000          0.0000          0.0000          0.0000          0.0000          

STAT_BOX_1      624             

Steps/sec. : 4151.9117
MOVE_BOX_0      119435          59729           50.0096         0.4941          39944           20119           50.3680         0.2730          0               0               0.0000          120750          23019           19.0634         400000          

ENERGY_BOX_0    -346408.7996    42920.2613      -6939.9783      -382389.0825    0.0000          0.0000          0.0000          0.0000          0.0000          0.0000          

STAT_BOX_0      90              

MOVE_BOX_1      119871          23009           19.1948         400000          

ENERGY_BOX_1    228673.4331     277270.9913     -48597.5583     0.0000          0.0000          0.0000          0.0000          0.0000          0.0000          0.0000          

STAT_BOX_1      610             

Steps/sec. : 4033.6308
MOVE_BOX_0      122437          61243           50.0200         0.5257          40972           20650           50.4003         0.3305          0               0               0.0000          123687          23369           18.8937         410000          

ENERGY_BOX_0    -265663.1155    35654.9297      -6208.2107      -295109.8345    0.0000          0.0000          0.0000          0.0000          0.0000          0.0000          

STAT_BOX_0      80              

MOVE_BOX_1      122904          23349           18.9978         410000          

ENERGY_BOX_1    231612.1407     280126.4219     -48514.2813     0.0000          0.0000          0.0000          0.0000          0.0000          0.0000          0.0000          

STAT_BOX_1      620             

Steps/sec. : 4033.4861
MOVE_BOX_0      125465          62778           50.0363         0.5668          41992           21155           50.3786         0.2765          0               0               0.0000          126630          23926           18.8944         420000          

ENERGY_BOX_0    -248682.8439    35350.6024      -6161.1261      -277872.3202    0.0000          0.0000          0.0000          0.0000          0.0000          0.0000          

STAT_BOX_0      78              

MOVE_BOX_1      125913          23904           18.9845         420000          

ENERGY_BOX_1    225364.0589     273161.0377     -47796.9788     0.0000          0.0000          0.0000          0.0000          0.0000          0.0000          0.0000          

STAT_BOX_1      622             

Steps/sec. : 4480.2243
MOVE_BOX_0      128435          64274           50.0440         0.5966          42987           21662           50.3920         0.3027          0               0               0.0000          129689          24441           18.8459         430000          

ENERGY_BOX_0    -245236.7164    34177.7293      -5931.7090      -273482.7368    0.0000          0.0000          0.0000          0.0000          0.0000          0.0000          

STAT_BOX_0      75              

MOVE_BOX_1      128889          24416           18.9434         430000          

ENERGY_BOX_1    234009.5055     284682.0619     -50672.5563     0.0000          0.0000          0.0000          0.0000          0.0000          0.0000          0.0000          

STAT_BOX_1      625             

Steps/sec. : 4310.2355
MOVE_BOX_0      131387          65746           50.0400         0.5558          44010           22179           50.3954         0.3288          0               0               0.0000          132668          24893           18.7634         440000          

ENERGY_BOX_0    -267637.4055    30393.7407      -5551.3834      -292479.7628    0.0000          0.0000          0.0000          0.0000          0.0000          0.0000          

STAT_BOX_0      78              

MOVE_BOX_1      131935          24871           18.8509         440000          

ENERGY_BOX_1    223069.3711     271968.3762     -48899.0052     0.0000          0.0000          0.0000          0.0000          0.0000          0.0000          0.0000          

STAT_BOX_1      622             

Steps/sec. : 4207.2792
MOVE_BOX_0      134387          67243           50.0368         0.5320          45020           22678           50.3732         0.2636          0               0               0.0000          135667          25346           18.6825         450000          

ENERGY_BOX_0    -266867.5124    31480.6358      -5508.2026      -292839.9456    0.0000          0.0000          0.0000          0.0000          0.0000          0.0000          

STAT_BOX_0      80              

MOVE_BOX_1      134926          25326           18.7703         450000          

ENERGY_BOX_1    225442.3195     274606.8811     -49164.5616     0.0000          0.0000          0.0000          0.0000          0.0000          0.0000          0.0000          

STAT_BOX_1      620             

Steps/sec. : 4141.5461
MOVE_BOX_0      137421          68770           50.0433         0.5528          46010           23180           50.3804         0.2900          0               0               0.0000          138606          25784           18.6024         460000          

ENERGY_BOX_0    -249414.5801    30071.4798      -3160.9090      -276325.1509    0.0000          0.0000          0.0000          0.0000          0.0000          0.0000          

STAT_BOX_0      77              

MOVE_BOX_1      137963          25761           18.6724         460000          

ENERGY_BOX_1    224844.1185     273898.6862     -49054.5677     0.0000          0.0000          0.0000          0.0000          0.0000          0.0000          0.0000          

STAT_BOX_1      623             

Steps/sec. : 4081.3978
MOVE_BOX_0      140335          70217           50.0353         0.5008          47027           23701           50.3987         0.3112          0               0               0.0000          141618          26348           18.6050         470000          

ENERGY_BOX_0    -234178.8695    26317.3047      -4943.9556      -255552.2187    0.0000          0.0000          0.0000          0.0000          0.0000          0.0000          

STAT_BOX_0      73              

MOVE_BOX_1      141020          26321           18.6647         470000          

ENERGY_BOX_1    249250.6951     302681.5562     -53430.8611     0.0000          0.0000          0.0000          0.0000          0.0000          0.0000          0.0000          

STAT_BOX_1      627             

Steps/sec. : 4431.7520
MOVE_BOX_0      143299          71711           50.0429         0.5300          48037           24208           50.3945         0.2994          0               0               0.0000          144655          26672           18.4384         480000          

ENERGY_BOX_0    -304385.4743    36966.9897      -7102.1038      -334250.3602    0.0000          0.0000          0.0000          0.0000          0.0000          0.0000          

STAT_BOX_0      84              

MOVE_BOX_1      144009          26656           18.5100         480000          

ENERGY_BOX_1    240486.5175     292115.2237     -51628.7062     0.0000          0.0000          0.0000          0.0000          0.0000          0.0000          0.0000          

STAT_BOX_1      616             

Steps/sec. : 4019.9584
MOVE_BOX_0      146298          73213           50.0437         0.5053          49070           24720           50.3770         0.2492          0               0               0.0000          147614          27048           18.3235         490000          

ENERGY_BOX_0    -266894.7146    33122.6655      -6139.2619      -293878.1182    0.0000          0.0000          0.0000          0.0000          0.0000          0.0000          

STAT_BOX_0      77              

MOVE_BOX_1      147018          27025           18.3821         490000          

ENERGY_BOX_1    263486.0966     317632.2446     -54146.1480     0.0000          0.0000          0.0000          0.0000          0.0000          0.0000          0.0000          

STAT_BOX_1      623             

Steps/sec. : 4050.8477
MOVE_BOX_0      149344          74747           50.0502         0.5261          50008           25183           50.3579         0.2060          0               0               0.0000          150635          27391           18.1837         500000          

ENERGY_BOX_0    -241966.6150    33197.2472      -5727.7598      -269436.1024    0.0000          0.0000          0.0000          0.0000          0.0000          0.0000          

STAT_BOX_0      75              

MOVE_BOX_1      150013          27366           18.2424         500000          

ENERGY_BOX_1    245205.0543     295622.3873     -50417.3330     0.0000          0.0000          0.0000          0.0000          0.0000          0.0000          0.0000          

STAT_BOX_1      625             

Steps/sec. : 3928.4490
MOVE_BOX_0      152306          76232           50.0519         0.5097          51047           25721           50.3869         0.2492          0               0               0.0000          153625          27795           18.0928         510000          

ENERGY_BOX_0    -287938.0474    32800.6556      -6463.2850      -314275.4181    0.0000          0.0000          0.0000          0.0000          0.0000          0.0000          

STAT_BOX_0      81              

MOVE_BOX_1      153022          27776           18.1516         510000          

ENERGY_BOX_1    257801.7018     309787.1272     -51985.4254     0.0000          0.0000          0.0000          0.0000          0.0000          0.0000          0.0000          

STAT_BOX_1      619             

Steps/sec. : 1521.6103
MOVE_BOX_0      155226          77730           50.0754         0.6375          52076           26256           50.4186         0.3634          0               0               0.0000          156607          28158           17.9800         520000          

ENERGY_BOX_0    -205918.4601    26989.1216      -5070.6518      -227836.9299    0.0000          0.0000          0.0000          0.0000          0.0000          0.0000          

STAT_BOX_0      70              

MOVE_BOX_1      156091          28128           18.0203         520000          

ENERGY_BOX_1    249279.6038     302098.4705     -52818.8667     0.0000          0.0000          0.0000          0.0000          0.0000          0.0000          0.0000          

STAT_BOX_1      630             

Steps/sec. : 1528.1017
MOVE_BOX_0      158237          79215           50.0610         0.5404          53058           26739           50.3958         0.2752          0               0               0.0000          159581          28688           17.9771         530000          

ENERGY_BOX_0    -208597.7465    22049.0574      -4337.7300      -226309.0739    0.0000          0.0000          0.0000          0.0000          0.0000          0.0000          

STAT_BOX_0      66              

MOVE_BOX_1      159124          28654           18.0073         530000          

ENERGY_BOX_1    234834.2083     284712.3091     -49878.1008     0.0000          0.0000          0.0000          0.0000          0.0000          0.0000          0.0000          

STAT_BOX_1      634             

Steps/sec. : 2037.4329
MOVE_BOX_0      161186          80698           50.0651         0.5444          54103           27281           50.4242         0.3525          0               0               0.0000          162581          29202           17.9615         540000          

ENERGY_BOX_0    -182067.0806    24199.9509      -4472.8824      -201794.1491    0.0000          0.0000          0.0000          0.0000          0.0000          0.0000          

STAT_BOX_0      64              

MOVE_BOX_1      162130          29166           17.9893         540000          

ENERGY_BOX_1    219839.1503     266712.4490     -46873.2987     0.0000          0.0000          0.0000          0.0000          0.0000          0.0000          0.0000          

STAT_BOX_1      636             

Steps/sec. : 1877.4819
MOVE_BOX_0      164138          82178           50.0664         0.5399          55128           27785           50.4009         0.2807          0               0               0.0000          165641          29591           17.8645         550000          

ENERGY_BOX_0    -302737.0765    27890.3884      -5560.4104      -325067.0545    0.0000          0.0000          0.0000          0.0000          0.0000          0.0000          

STAT_BOX_0      84              

MOVE_BOX_1      165093          29575           17.9141         550000          

ENERGY_BOX_1    240688.3468     291571.4331     -50883.0864     0.0000          0.0000          0.0000          0.0000          0.0000          0.0000          0.0000          

STAT_BOX_1      616             

Steps/sec. : 1837.1556
MOVE_BOX_0      167139          83688           50.0709         0.5344          56107           28275           50.3948         0.2416          0               0               0.0000          168660          29884           17.7185         560000          

ENERGY_BOX_0    -331815.3906    29212.5288      -5723.4445      -355304.4749    0.0000          0.0000          0.0000          0.0000          0.0000          0.0000          

STAT_BOX_0      86              

MOVE_BOX_1      168094          29870           17.7698         560000          

ENERGY_BOX_1    234204.6969     284229.6324     -50024.9355     0.0000          0.0000          0.0000          0.0000          0.0000          0.0000          0.0000          

STAT_BOX_1      614             

Steps/sec. : 1547.9413
MOVE_BOX_0      170133          85183           50.0685         0.5262          57113           28793           50.4141         0.3152          0               0               0.0000          171747          30341           17.6661         570000          

ENERGY_BOX_0    -251283.3972    35956.4009      -6271.2516      -280968.5465    0.0000          0.0000          0.0000          0.0000          0.0000          0.0000          

STAT_BOX_0      76              

MOVE_BOX_1      171007          30317           17.7285         570000          

ENERGY_BOX_1    222346.8587     270485.8888     -48139.0302     0.0000          0.0000          0.0000          0.0000          0.0000          0.0000          0.0000          

STAT_BOX_1      624             

Steps/sec. : 1315.3291
MOVE_BOX_0      173112          86669           50.0653         0.4999          58132           29292           50.3888         0.2253          0               0               0.0000          174694          30684           17.5644         580000          

ENERGY_BOX_0    -354666.1572    37352.2308      -6751.2367      -385267.1513    0.0000          0.0000          0.0000          0.0000          0.0000          0.0000          

STAT_BOX_0      90              

MOVE_BOX_1      174062          30674           17.6225         580000          

ENERGY_BOX_1    244850.8158     295379.7053     -50528.8895     0.0000          0.0000          0.0000          0.0000          0.0000          0.0000          0.0000          

STAT_BOX_1      610             

Steps/sec. : 1239.0391
MOVE_BOX_0      176083          88175           50.0758         0.5662          59127           29810           50.4169         0.3315          0               0               0.0000          177629          31050           17.4803         590000          

ENERGY_BOX_0    -146616.0618    22769.8975      -4211.4049      -165174.5544    0.0000          0.0000          0.0000          0.0000          0.0000          0.0000          

STAT_BOX_0      59              

MOVE_BOX_1      177161          31009           17.5033         590000          

ENERGY_BOX_1    274626.0348     330594.6076     -55968.5727     0.0000          0.0000          0.0000          0.0000          0.0000          0.0000          0.0000          

STAT_BOX_1      641             

Steps/sec. : 1293.0519
MOVE_BOX_0      179091          89702           50.0874         0.6220          60142           30326           50.4240         0.3390          0               0               0.0000          180553          31603           17.5034         600000          

ENERGY_BOX_0    -251392.7299    30030.8438      -5752.4908      -275671.0829    0.0000          0.0000          0.0000          0.0000          0.0000          0.0000          

STAT_BOX_0      77              

MOVE_BOX_1      180214          31580           17.5236         600000          

ENERGY_BOX_1    267526.6684     323664.8079     -56138.1394     0.0000          0.0000          0.0000          0.0000          0.0000          0.0000          0.0000          

STAT_BOX_1      623             

Steps/sec. : 1263.0415
MOVE_BOX_0      182184          91221           50.0708         0.5085          61143           30808           50.3868         0.2312          0               0               0.0000          183534          32119           17.5003         610000          

ENERGY_BOX_0    -299424.0431    31873.4623      -5838.4678      -325459.0376    0.0000          0.0000          0.0000          0.0000          0.0000          0.0000          

STAT_BOX_0      82              

MOVE_BOX_1      183139          32101           17.5282         610000          

ENERGY_BOX_1    243014.7921     294997.8880     -51983.0959     0.0000          0.0000          0.0000          0.0000          0.0000          0.0000          0.0000          

STAT_BOX_1      618             

Steps/sec. : 1232.5162
MOVE_BOX_0      185182          92738           50.0794         0.5201          62120           31307           50.3976         0.2733          0               0               0.0000          186553          32479           17.4101         620000          

ENERGY_BOX_0    -264968.4074    36625.0012      -6704.6635      -294888.7451    0.0000          0.0000          0.0000          0.0000          0.0000          0.0000          

STAT_BOX_0      79              

MOVE_BOX_1      186145          32458           17.4369         620000          

ENERGY_BOX_1    234584.5033     284500.1341     -49915.6308     0.0000          0.0000          0.0000          0.0000          0.0000          0.0000          0.0000          

STAT_BOX_1      621             

Steps/sec. : 1213.2134
MOVE_BOX_0      188182          94272           50.0962         0.6171          63122           31823           50.4151         0.3054          0               0               0.0000          189586          33080           17.4485         630000          

ENERGY_BOX_0    -138116.6478    19496.0254      -3818.8906      -153793.7826    0.0000          0.0000          0.0000          0.0000          0.0000          0.0000          

STAT_BOX_0      52              

MOVE_BOX_1      189110          33032           17.4671         630000          

ENERGY_BOX_1    246988.4592     298033.4976     -51045.0384     0.0000          0.0000          0.0000          0.0000          0.0000          0.0000          0.0000          

STAT_BOX_1      648             

Steps/sec. : 1336.3399
MOVE_BOX_0      191159          95750           50.0892         0.5312          64244           32380           50.4016         0.2709          0               0               0.0000          192524          33648           17.4773         640000          

ENERGY_BOX_0    -277441.9023    42064.0344      -7278.0055      -312227.9312    0.0000          0.0000          0.0000          0.0000          0.0000          0.0000          

STAT_BOX_0      81              

MOVE_BOX_1      192073          33629           17.5084         640000          

ENERGY_BOX_1    236321.7920     286917.2342     -50595.4423     0.0000          0.0000          0.0000          0.0000          0.0000          0.0000          0.0000          

STAT_BOX_1      619             

Steps/sec. : 1569.0808
MOVE_BOX_0      194106          97226           50.0891         0.5172          65272           32901           50.4060         0.2615          0               0               0.0000          195567          34008           17.3894         650000          

ENERGY_BOX_0    -285078.1418    44070.4751      -7604.0909      -321544.5259    0.0000          0.0000          0.0000          0.0000          0.0000          0.0000          

STAT_BOX_0      83              

MOVE_BOX_1      195055          33991           17.4264         650000          

ENERGY_BOX_1    237908.8906     288718.5912     -50809.7007     0.0000          0.0000          0.0000          0.0000          0.0000          0.0000          0.0000          

STAT_BOX_1      617             

Steps/sec. : 827.0718
MOVE_BOX_0      197068          98738           50.1035         0.6157          66313           33433           50.4170         0.3173          0               0               0.0000          198624          34621           17.4304         660000          

ENERGY_BOX_0    -206787.6769    34257.7316      -6140.9849      -234904.4236    0.0000          0.0000          0.0000          0.0000          0.0000          0.0000          

STAT_BOX_0      72              

MOVE_BOX_1      197995          34593           17.4717         660000          

ENERGY_BOX_1    233274.6170     283261.8232     -49987.2062     0.0000          0.0000          0.0000          0.0000          0.0000          0.0000          0.0000          

STAT_BOX_1      628             

Steps/sec. : 1818.8181
MOVE_BOX_0      200048          100223          50.0995         0.5861          67281           33919           50.4139         0.3079          0               0               0.0000          201596          35141           17.4314         670000          

ENERGY_BOX_0    -236570.5745    30382.3611      -5766.1040      -261186.8316    0.0000          0.0000          0.0000          0.0000          0.0000          0.0000          

STAT_BOX_0      75              

MOVE_BOX_1      201075          35116           17.4641         670000          

ENERGY_BOX_1    223960.6522     273541.7802     -49581.1281     0.0000          0.0000          0.0000          0.0000          0.0000          0.0000          0.0000          

STAT_BOX_1      625             

Steps/sec. : 1706.8909
MOVE_BOX_0      203080          101731          50.0941         0.5492          68262           34412           50.4116         0.2999          0               0               0.0000          204549          35575           17.3919         680000          

ENERGY_BOX_0    -283596.4139    30945.9193      -5697.6189      -308844.7143    0.0000          0.0000          0.0000          0.0000          0.0000          0.0000          

STAT_BOX_0      80              

MOVE_BOX_1      204109          35555           17.4196         680000          

ENERGY_BOX_1    201647.7313     246804.1359     -45156.4046     0.0000          0.0000          0.0000          0.0000          0.0000          0.0000          0.0000          

STAT_BOX_1      620             

Steps/sec. : 1685.8463
MOVE_BOX_0      206210          103313          50.1009         0.5788          69226           34894           50.4059         0.2637          0               0               0.0000          207495          35895           17.2992         690000          

ENERGY_BOX_0    -227770.1292    30568.1578      -5862.8720      -252475.4150    0.0000          0.0000          0.0000          0.0000          0.0000          0.0000          

STAT_BOX_0      73              

MOVE_BOX_1      207069          35868           17.3218         690000          

ENERGY_BOX_1    211834.6379     258149.3371     -46314.6992     0.0000          0.0000          0.0000          0.0000          0.0000          0.0000          0.0000          

STAT_BOX_1      627             

Steps/sec. : 1643.9314
MOVE_BOX_0      209260          104823          50.0922         0.4941          70229           35408           50.4179         0.3073          0               0               0.0000          210397          36265           17.2365         700000          

ENERGY_BOX_0    -282959.7610    35600.4794      -6193.0111      -312367.2294    0.0000          0.0000          0.0000          0.0000          0.0000          0.0000          

STAT_BOX_0      82              

MOVE_BOX_1      210114          36247           17.2511         700000          

ENERGY_BOX_1    210573.1378     256898.9982     -46325.8604     0.0000          0.0000          0.0000          0.0000          0.0000          0.0000          0.0000          

STAT_BOX_1      618             

Steps/sec. : 1564.9516
MOVE_BOX_0      212175          106305          50.1025         0.5693          71230           35912           50.4170         0.2975          0               0               0.0000          213506          36804           17.2379         710000          

ENERGY_BOX_0    -184176.1042    31579.3361      -5450.7397      -210304.7006    0.0000          0.0000          0.0000          0.0000          0.0000          0.0000          

STAT_BOX_0      64              

MOVE_BOX_1      213089          36768           17.2548         710000          

ENERGY_BOX_1    226296.6542     275756.4754     -49459.8212     0.0000          0.0000          0.0000          0.0000          0.0000          0.0000          0.0000          

STAT_BOX_1      636             

Steps/sec. : 1717.2562
MOVE_BOX_0      215142          107836          50.1232         0.7281          72200           36408           50.4266         0.3267          0               0               0.0000          216590          37393           17.2644         720000          

ENERGY_BOX_0    -151465.7711    23584.1982      -4312.3461      -170737.6232    0.0000          0.0000          0.0000          0.0000          0.0000          0.0000          

STAT_BOX_0      62              

MOVE_BOX_1      216068          37355           17.2885         720000          

ENERGY_BOX_1    230598.8846     280986.3622     -50387.4776     0.0000          0.0000          0.0000          0.0000          0.0000          0.0000          0.0000          

STAT_BOX_1      638             

Steps/sec. : 1757.8180
MOVE_BOX_0      218115          109283          50.1034         0.5459          73207           36912           50.4214         0.2968          0               0               0.0000          219598          37808           17.2169         730000          

ENERGY_BOX_0    -231203.2954    24422.0055      -4618.9796      -251006.3213    0.0000          0.0000          0.0000          0.0000          0.0000          0.0000          

STAT_BOX_0      74              

MOVE_BOX_1      219080          37782           17.2458         730000          

ENERGY_BOX_1    243411.5792     294132.9460     -50721.3668     0.0000          0.0000          0.0000          0.0000          0.0000          0.0000          0.0000          

STAT_BOX_1      626             

Steps/sec. : 1643.7809
MOVE_BOX_0      221025          110878          50.1654         1.1850          74172           37445           50.4840         0.7758          0               0               0.0000          222720          38782           17.4129         740000          

ENERGY_BOX_0    -8888.8145      6632.2448       -1112.9416      -14408.1177     0.0000          0.0000          0.0000          0.0000          0.0000          0.0000          

STAT_BOX_0      13              

MOVE_BOX_1      222083          38695           17.4237         740000          

ENERGY_BOX_1    256724.9940     310674.3183     -53949.3243     0.0000          0.0000          0.0000          0.0000          0.0000          0.0000          0.0000          

STAT_BOX_1      687             

Steps/sec. : 1844.9650
MOVE_BOX_0      223985          112519          50.2351         2.5284          75197           38015           50.5539         1.8129          0               0               0.0000          225727          40571           17.9735         750000          

ENERGY_BOX_0    -13705.8334     7616.2127       -1444.4786      -19877.5675     0.0000          0.0000          0.0000          0.0000          0.0000          0.0000          

STAT_BOX_0      17              

MOVE_BOX_1      225091          40488           17.9874         750000          

ENERGY_BOX_1    235050.5391     286839.0277     -51788.4886     0.0000          0.0000          0.0000          0.0000          0.0000          0.0000          0.0000          

STAT_BOX_1      683             

Steps/sec. : 2170.1492
MOVE_BOX_0      227053          114137          50.2689         2.9779          76155           38528           50.5916         2.9499          0               0               0.0000          228795          42539           18.5926         760000          

ENERGY_BOX_0    -2131.6078      5647.4005       -979.1331       -6799.8752      0.0000          0.0000          0.0000          0.0000          0.0000          0.0000          

STAT_BOX_0      12              

MOVE_BOX_1      227997          42451           18.6191         760000          

ENERGY_BOX_1    228098.7798     277556.4946     -49457.7148     0.0000          0.0000          0.0000          0.0000          0.0000          0.0000          0.0000          

STAT_BOX_1      688             

Steps/sec. : 2272.8750
MOVE_BOX_0      230078          115614          50.2499         2.1072          77120           38993           50.5615         1.8952          0               0               0.0000          231818          44471           19.1836         770000          

ENERGY_BOX_0    -7078.5004      3390.3275       -719.7646       -9749.0632      0.0000          0.0000          0.0000          0.0000          0.0000          0.0000          

STAT_BOX_0      13              

MOVE_BOX_1      230984          44384           19.2152         770000          

ENERGY_BOX_1    259091.2460     314850.1926     -55758.9466     0.0000          0.0000          0.0000          0.0000          0.0000          0.0000          0.0000          

STAT_BOX_1      687             

Steps/sec. : 2169.7566
MOVE_BOX_0      233032          117036          50.2231         0.9619          78130           39454           50.4979         0.5743          0               0               0.0000          234848          46146           19.6493         780000          

ENERGY_BOX_0    -68865.5772     14324.9594      -2857.1325      -80333.4041     0.0000          0.0000          0.0000          0.0000          0.0000          0.0000          

STAT_BOX_0      37              

MOVE_BOX_1      233990          46083           19.6944         780000          

ENERGY_BOX_1    247644.9708     301245.4600     -53600.4891     0.0000          0.0000          0.0000          0.0000          0.0000          0.0000          0.0000          

STAT_BOX_1      663             

Steps/sec. : 2105.0531
MOVE_BOX_0      236084          118468          50.1804         0.4581          79162           39943           50.4573         0.3147          0               0               0.0000          237842          46726           19.6458         790000          

ENERGY_BOX_0    -226496.7329    36063.6568      -5997.8505      -256562.5392    0.0000          0.0000          0.0000          0.0000          0.0000          0.0000          

STAT_BOX_0      74              

MOVE_BOX_1      236912          46700           19.7120         790000          

ENERGY_BOX_1    248124.7576     301027.4838     -52902.7262     0.0000          0.0000          0.0000          0.0000          0.0000          0.0000          0.0000          

STAT_BOX_1      626             

Steps/sec. : 1744.9211
MOVE_BOX_0      239051          120021          50.2073         0.6664          80131           40436           50.4624         0.3492          0               0               0.0000          240919          47351           19.6543         800000          

ENERGY_BOX_0    -228621.7408    31466.0998      -5185.5302      -254902.3104    0.0000          0.0000          0.0000          0.0000          0.0000          0.0000          

STAT_BOX_0      75              

MOVE_BOX_1      239899          47326           19.7275         800000          

ENERGY_BOX_1    230833.9293     279509.7355     -48675.8062     0.0000          0.0000          0.0000          0.0000          0.0000          0.0000          0.0000          

STAT_BOX_1      625             

Steps/sec. : 1709.4125
MOVE_BOX_0      242020          121511          50.2070         0.6676          81104           40922           50.4562         0.3078          0               0               0.0000          244009          47785           19.5833         810000          

ENERGY_BOX_0    -192177.6968    31528.8317      -5778.0748      -217928.4537    0.0000          0.0000          0.0000          0.0000          0.0000          0.0000          

STAT_BOX_0      68              

MOVE_BOX_1      242867          47753           19.6622         810000          

ENERGY_BOX_1    235859.7967     286052.1022     -50192.3054     0.0000          0.0000          0.0000          0.0000          0.0000          0.0000          0.0000          

STAT_BOX_1      632             

Steps/sec. : 1644.2617
MOVE_BOX_0      244992          123043          50.2233         0.6837          82122           41472           50.5005         0.4909          0               0               0.0000          247033          49131           19.8884         820000          

ENERGY_BOX_0    -202174.9172    27998.3124      -5018.9411      -225154.2885    0.0000          0.0000          0.0000          0.0000          0.0000          0.0000          

STAT_BOX_0      69              

MOVE_BOX_1      245853          49100           19.9713         820000          

ENERGY_BOX_1    220087.2498     267407.3769     -47320.1271     0.0000          0.0000          0.0000          0.0000          0.0000          0.0000          0.0000          

STAT_BOX_1      631             

Steps/sec. : 1924.6963
MOVE_BOX_0      248024          124517          50.2036         0.4958          83151           41957           50.4588         0.2340          0               0               0.0000          249985          49607           19.8440         830000          

ENERGY_BOX_0    -284099.6394    34076.9531      -5963.5545      -312213.0379    0.0000          0.0000          0.0000          0.0000          0.0000          0.0000          

STAT_BOX_0      80              

MOVE_BOX_1      248840          49587           19.9273         830000          

ENERGY_BOX_1    237673.2264     288550.9821     -50877.7557     0.0000          0.0000          0.0000          0.0000          0.0000          0.0000          0.0000          

STAT_BOX_1      620             

Steps/sec. : 1513.1683
MOVE_BOX_0      250925          125981          50.2066         0.5298          84155           42473           50.4700         0.2878          0               0               0.0000          253056          50012           19.7632         840000          

ENERGY_BOX_0    -256212.9641    29626.4572      -5334.8486      -280504.5727    0.0000          0.0000          0.0000          0.0000          0.0000          0.0000          

STAT_BOX_0      76              

MOVE_BOX_1      251864          49988           19.8472         840000          

ENERGY_BOX_1    244784.9914     297386.1714     -52601.1800     0.0000          0.0000          0.0000          0.0000          0.0000          0.0000          0.0000          

STAT_BOX_1      624             

Steps/sec. : 1652.4102
MOVE_BOX_0      253901          127469          50.2042         0.4816          85083           42941           50.4695         0.2876          0               0               0.0000          256040          50403           19.6856         850000          

ENERGY_BOX_0    -250999.4916    34182.9836      -5995.5513      -279186.9240    0.0000          0.0000          0.0000          0.0000          0.0000          0.0000          

STAT_BOX_0      77              

MOVE_BOX_1      254976          50380           19.7587         850000          

ENERGY_BOX_1    238418.6728     288857.8330     -50439.1602     0.0000          0.0000          0.0000          0.0000          0.0000          0.0000          0.0000          

STAT_BOX_1      623             

Steps/sec. : 1935.6134
MOVE_BOX_0      256824          128959          50.2130         0.5549          86058           43428           50.4636         0.2700          0               0               0.0000          259107          50702           19.5680         860000          

ENERGY_BOX_0    -262987.7330    35942.0221      -6650.2451      -292279.5099    0.0000          0.0000          0.0000          0.0000          0.0000          0.0000          

STAT_BOX_0      79              

MOVE_BOX_1      258011          50681           19.6430         860000          

ENERGY_BOX_1    244521.4496     295332.4860     -50811.0364     0.0000          0.0000          0.0000          0.0000          0.0000          0.0000          0.0000          

STAT_BOX_1      621             

Steps/sec. : 1869.3954
MOVE_BOX_0      259745          130445          50.2204         0.6376          87041           43927           50.4670         0.2910          0               0               0.0000          262146          51250           19.5502         870000          

ENERGY_BOX_0    -221572.6470    26484.3218      -4895.6285      -243161.3403    0.0000          0.0000          0.0000          0.0000          0.0000          0.0000          

STAT_BOX_0      72              

MOVE_BOX_1      261068          51222           19.6202         870000          

ENERGY_BOX_1    227027.3304     274953.6201     -47926.2898     0.0000          0.0000          0.0000          0.0000          0.0000          0.0000          0.0000          

STAT_BOX_1      628             

Steps/sec. : 1997.5299
MOVE_BOX_0      262729          131920          50.2114         0.5450          88042           44438           50.4736         0.3417          0               0               0.0000          265180          51825           19.5433         880000          

ENERGY_BOX_0    -175309.5345    25084.5340      -4414.0137      -195980.0547    0.0000          0.0000          0.0000          0.0000          0.0000          0.0000          

STAT_BOX_0      65              

MOVE_BOX_1      264049          51790           19.6138         880000          

ENERGY_BOX_1    249210.3218     300917.6479     -51707.3261     0.0000          0.0000          0.0000          0.0000          0.0000          0.0000          0.0000          

STAT_BOX_1      635             

Steps/sec. : 1942.5219
MOVE_BOX_0      265736          133447          50.2179         0.6110          89075           44947           50.4597         0.2634          0               0               0.0000          268077          52249           19.4903         890000          

ENERGY_BOX_0    -199360.8225    28521.2193      -5184.4707      -222697.5711    0.0000          0.0000          0.0000          0.0000          0.0000          0.0000          

STAT_BOX_0      71              

MOVE_BOX_1      267112          52220           19.5499         890000          

ENERGY_BOX_1    241456.7842     291046.9880     -49590.2038     0.0000          0.0000          0.0000          0.0000          0.0000          0.0000          0.0000          

STAT_BOX_1      629             

Steps/sec. : 1932.8296
MOVE_BOX_0      268751          134956          50.2160         0.6028          90103           45483           50.4789         0.3649          0               0               0.0000          271057          52759           19.4642         900000          

ENERGY_BOX_0    -203826.9732    27523.7658      -5290.5338      -226060.2052    0.0000          0.0000          0.0000          0.0000          0.0000          0.0000          

STAT_BOX_0      69              

MOVE_BOX_1      270089          52728           19.5225         900000          

ENERGY_BOX_1    242258.7777     291883.9255     -49625.1478     0.0000          0.0000          0.0000          0.0000          0.0000          0.0000          0.0000          

STAT_BOX_1      631             

Steps/sec. : 1920.1800
MOVE_BOX_0      271721          136472          50.2250         0.7257          91107           46000           50.4901         0.4197          0               0               0.0000          274079          53437           19.4969         910000          

ENERGY_BOX_0    -83355.5638     35581.4470      -5425.9858      -113511.0251    0.0000          0.0000          0.0000          0.0000          0.0000          0.0000          

STAT_BOX_0      48              

MOVE_BOX_1      273093          53385           19.5483         910000          

ENERGY_BOX_1    237720.2879     287966.5067     -50246.2188     0.0000          0.0000          0.0000          0.0000          0.0000          0.0000          0.0000          

STAT_BOX_1      652             

Steps/sec. : 2000.7326
MOVE_BOX_0      274665          137891          50.2033         0.4909          92140           46492           50.4580         0.2459          0               0               0.0000          277149          54047           19.5011         920000          

ENERGY_BOX_0    -268675.2623    39480.2161      -6665.4377      -301490.0407    0.0000          0.0000          0.0000          0.0000          0.0000          0.0000          

STAT_BOX_0      79              

MOVE_BOX_1      276046          54026           19.5714         920000          

ENERGY_BOX_1    216387.5287     263787.8109     -47400.2822     0.0000          0.0000          0.0000          0.0000          0.0000          0.0000          0.0000          

STAT_BOX_1      621             

Steps/sec. : 1993.8800
MOVE_BOX_0      277711          139424          50.2047         0.5175          93150           47020           50.4777         0.3844          0               0               0.0000          280128          54504           19.4568         930000          

ENERGY_BOX_0    -232229.4866    29580.0393      -5189.3711      -256620.1547    0.0000          0.0000          0.0000          0.0000          0.0000          0.0000          

STAT_BOX_0      73              

MOVE_BOX_1      279011          54477           19.5250         930000          

ENERGY_BOX_1    231762.4034     281943.1544     -50180.7510     0.0000          0.0000          0.0000          0.0000          0.0000          0.0000          0.0000          

STAT_BOX_1      627             

Steps/sec. : 1898.8361
MOVE_BOX_0      280789          140991          50.2124         0.5802          94098           47501           50.4804         0.3507          0               0               0.0000          283064          54955           19.4143         940000          

ENERGY_BOX_0    -181482.6641    34681.0222      -4447.3670      -211716.3193    0.0000          0.0000          0.0000          0.0000          0.0000          0.0000          

STAT_BOX_0      66              

MOVE_BOX_1      282049          54921           19.4721         940000          

ENERGY_BOX_1    254496.1808     308029.3443     -53533.1636     0.0000          0.0000          0.0000          0.0000          0.0000          0.0000          0.0000          

STAT_BOX_1      634             

Steps/sec. : 1905.0359
MOVE_BOX_0      283751          142450          50.2025         0.4949          95108           47984           50.4521         0.2094          0               0               0.0000          286111          55424           19.3715         950000          

ENERGY_BOX_0    -253140.4153    33163.9391      -5964.2234      -280340.1310    0.0000          0.0000          0.0000          0.0000          0.0000          0.0000          

STAT_BOX_0      79              

MOVE_BOX_1      285030          55403           19.4376         950000          

ENERGY_BOX_1    238314.4652     288380.2353     -50065.7700     0.0000          0.0000          0.0000          0.0000          0.0000          0.0000          0.0000          

STAT_BOX_1      621             

Steps/sec. : 1917.3823
MOVE_BOX_0      286633          143875          50.1948         0.4362          96100           48493           50.4610         0.2639          0               0               0.0000          289171          55798           19.2958         960000          

ENERGY_BOX_0    -180962.8269    38350.7174      -6157.3858      -213156.1585    0.0000          0.0000          0.0000          0.0000          0.0000          0.0000          

STAT_BOX_0      65              

MOVE_BOX_1      288096          55763           19.3557         960000          

ENERGY_BOX_1    235549.0172     286286.2302     -50737.2130     0.0000          0.0000          0.0000          0.0000          0.0000          0.0000          0.0000          

STAT_BOX_1      635             

Steps/sec. : 1942.0206
MOVE_BOX_0      289632          145407          50.2041         0.5282          97120           49007           50.4603         0.2720          0               0               0.0000          292136          56191           19.2345         970000          

ENERGY_BOX_0    -247655.3399    28225.3576      -5178.9939      -270701.7036    0.0000          0.0000          0.0000          0.0000          0.0000          0.0000          

STAT_BOX_0      75              

MOVE_BOX_1      291112          56166           19.2936         970000          

ENERGY_BOX_1    219425.9278     267502.8496     -48076.9218     0.0000          0.0000          0.0000          0.0000          0.0000          0.0000          0.0000          

STAT_BOX_1      625             

Steps/sec. : 1945.4591
MOVE_BOX_0      292604          146890          50.2010         0.5040          98170           49542           50.4655         0.3114          0               0               0.0000          295121          56756           19.2314         980000          

ENERGY_BOX_0    -261890.6085    22657.5078      -4665.6082      -279882.5082    0.0000          0.0000          0.0000          0.0000          0.0000          0.0000          

STAT_BOX_0      77              

MOVE_BOX_1      294105          56733           19.2900         980000          

ENERGY_BOX_1    216929.4390     263532.1051     -46602.6661     0.0000          0.0000          0.0000          0.0000          0.0000          0.0000          0.0000          

STAT_BOX_1      623             

Steps/sec. : 1947.0731
MOVE_BOX_0      295606          148423          50.2097         0.6003          99142           50029           50.4620         0.2774          0               0               0.0000          298219          57215           19.1856         990000          

ENERGY_BOX_0    -238844.7475    35619.7695      -6324.7149      -268139.8021    0.0000          0.0000          0.0000          0.0000          0.0000          0.0000          

STAT_BOX_0      75              

MOVE_BOX_1      297033          57190           19.2538         990000          

ENERGY_BOX_1    216013.8249     264109.8590     -48096.0341     0.0000          0.0000          0.0000          0.0000          0.0000          0.0000          0.0000          

STAT_BOX_1      625             

Steps/sec. : 1924.3122
MOVE_BOX_0      298637          149940          50.2081         0.5660          100137          50544           50.4748         0.4023          0               0               0.0000          301098          57626           19.1386         1000000         

ENERGY_BOX_0    -250284.6602    32364.8329      -5322.3945      -277327.0987    0.0000          0.0000          0.0000          0.0000          0.0000          0.0000          

STAT_BOX_0      76              

MOVE_BOX_1      300128          57602           19.1925         1000000         

ENERGY_BOX_1    215878.7317     264945.2246     -49066.4929     0.0000          0.0000          0.0000          0.0000          0.0000          0.0000          0.0000          

STAT_BOX_1      624             

Simulation Time (total): 413.6926sec.
GOMC Serial Version 1.9
Completed at: Fri Dec  9 11:38:46 2016
On hostname: potoff39.eng.wayne.edu
