 Entering Gaussian System, Link 0=g16
 Initial command:
 /wsu/apps/groups/hbsq/gaussian/b01/SSE4/em64t/g16/l1.exe "/wsu/home/hf/hf68/hf6839/Simulations/heavy_metals_reuse/dihedrals/gaussian/ethane_HC_CT_CT_HC/multiplicity_1/guassian_runs/Gau-3515.inp" -scrdir="/wsu/home/hf/hf68/hf6839/Simulations/heavy_metals_reuse/dihedrals/gaussian/ethane_HC_CT_CT_HC/multiplicity_1/guassian_runs/"
 Entering Link 1 = /wsu/apps/groups/hbsq/gaussian/b01/SSE4/em64t/g16/l1.exe PID=      3619.
  
 Copyright (c) 1988-2017, Gaussian, Inc.  All Rights Reserved.
  
 This is part of the Gaussian(R) 16 program.  It is based on
 the Gaussian(R) 09 system (copyright 2009, Gaussian, Inc.),
 the Gaussian(R) 03 system (copyright 2003, Gaussian, Inc.),
 the Gaussian(R) 98 system (copyright 1998, Gaussian, Inc.),
 the Gaussian(R) 94 system (copyright 1995, Gaussian, Inc.),
 the Gaussian 92(TM) system (copyright 1992, Gaussian, Inc.),
 the Gaussian 90(TM) system (copyright 1990, Gaussian, Inc.),
 the Gaussian 88(TM) system (copyright 1988, Gaussian, Inc.),
 the Gaussian 86(TM) system (copyright 1986, Carnegie Mellon
 University), and the Gaussian 82(TM) system (copyright 1983,
 Carnegie Mellon University). Gaussian is a federally registered
 trademark of Gaussian, Inc.
  
 This software contains proprietary and confidential information,
 including trade secrets, belonging to Gaussian, Inc.
  
 This software is provided under written license and may be
 used, copied, transmitted, or stored only in accord with that
 written license.
  
 The following legend is applicable only to US Government
 contracts under FAR:
  
                    RESTRICTED RIGHTS LEGEND
  
 Use, reproduction and disclosure by the US Government is
 subject to restrictions as set forth in subparagraphs (a)
 and (c) of the Commercial Computer Software - Restricted
 Rights clause in FAR 52.227-19.
  
 Gaussian, Inc.
 340 Quinnipiac St., Bldg. 40, Wallingford CT 06492
  
  
 ---------------------------------------------------------------
 Warning -- This program may not be used in any manner that
 competes with the business of Gaussian, Inc. or will provide
 assistance to any competitor of Gaussian, Inc.  The licensee
 of this program is prohibited from giving any competitor of
 Gaussian, Inc. access to this program.  By using this program,
 the user acknowledges that Gaussian, Inc. is engaged in the
 business of creating and licensing software in the field of
 computational chemistry and represents and warrants to the
 licensee that it is not a competitor of Gaussian, Inc. and that
 it will not use this program in any manner prohibited above.
 ---------------------------------------------------------------
  

 Cite this work as:
 Gaussian 16, Revision B.01,
 M. J. Frisch, G. W. Trucks, H. B. Schlegel, G. E. Scuseria, 
 M. A. Robb, J. R. Cheeseman, G. Scalmani, V. Barone, 
 G. A. Petersson, H. Nakatsuji, X. Li, M. Caricato, A. V. Marenich, 
 J. Bloino, B. G. Janesko, R. Gomperts, B. Mennucci, H. P. Hratchian, 
 J. V. Ortiz, A. F. Izmaylov, J. L. Sonnenberg, D. Williams-Young, 
 F. Ding, F. Lipparini, F. Egidi, J. Goings, B. Peng, A. Petrone, 
 T. Henderson, D. Ranasinghe, V. G. Zakrzewski, J. Gao, N. Rega, 
 G. Zheng, W. Liang, M. Hada, M. Ehara, K. Toyota, R. Fukuda, 
 J. Hasegawa, M. Ishida, T. Nakajima, Y. Honda, O. Kitao, H. Nakai, 
 T. Vreven, K. Throssell, J. A. Montgomery, Jr., J. E. Peralta, 
 F. Ogliaro, M. J. Bearpark, J. J. Heyd, E. N. Brothers, K. N. Kudin, 
 V. N. Staroverov, T. A. Keith, R. Kobayashi, J. Normand, 
 K. Raghavachari, A. P. Rendell, J. C. Burant, S. S. Iyengar, 
 J. Tomasi, M. Cossi, J. M. Millam, M. Klene, C. Adamo, R. Cammi, 
 J. W. Ochterski, R. L. Martin, K. Morokuma, O. Farkas, 
 J. B. Foresman, and D. J. Fox, Gaussian, Inc., Wallingford CT, 2016.
 
 ******************************************
 Gaussian 16:  ES64L-G16RevB.01 20-Dec-2017
                20-Jan-2023 
 ******************************************
 %chk=HC_CT_CT_HC_multiplicity_1.chk
 %nproc=4
 Will use up to    4 processors via shared memory.
 %mem=32GB
 ----------------------------------------------------------------------
 # opt=modredundant UHF/6-31G* SCF=(MaxCycle=1000) Geom=PrintInputOrien
 t
 ----------------------------------------------------------------------
 1/18=120,19=15,38=1/1,3;
 2/9=2110,12=2,17=6,18=5,40=1/2;
 3/5=1,6=6,7=1,11=2,25=1,30=1,71=1,116=2/1,2,3;
 4//1;
 5/5=2,7=1000,38=5/2;
 6/7=2,8=2,9=2,10=2,28=1/1;
 7//1,2,3,16;
 1/18=20,19=15/3(2);
 2/9=2110/2;
 99//99;
 2/9=2110/2;
 3/5=1,6=6,7=1,11=2,25=1,30=1,71=1,116=2/1,2,3;
 4/5=5,16=3,69=1/1;
 5/5=2,7=1000,38=5/2;
 7//1,2,3,16;
 1/18=20,19=15/3(-5);
 2/9=2110/2;
 6/7=2,8=2,9=2,10=2,19=2,28=1/1;
 99/9=1/99;
 ---------------------------
 Dihedral Scan at UHF/6-31G*
 ---------------------------
 Symbolic Z-matrix:
 Charge =  0 Multiplicity = 1
 C                     0.        0.        0. 
 C                    -1.5       0.        0. 
 H                     0.3256   -0.9455    0. 
 H                     0.3256    0.4728   -0.8188 
 H                     0.3256    0.4728    0.8188 
 H                    -1.8256    0.9455    0. 
 H                    -1.8256   -0.4728   -0.8188 
 H                    -1.8256   -0.4728    0.8188 
 
 The following ModRedundant input section has been read:
 D       3       1       2       6 S  36 10.000                                
 

 GradGradGradGradGradGradGradGradGradGradGradGradGradGradGradGradGradGrad
 Berny optimization.
 Initialization pass.
                           ----------------------------
                           !    Initial Parameters    !
                           ! (Angstroms and Degrees)  !
 --------------------------                            --------------------------
 ! Name  Definition              Value          Derivative Info.                !
 --------------------------------------------------------------------------------
 ! R1    R(1,2)                  1.5            estimate D2E/DX2                !
 ! R2    R(1,3)                  1.0            estimate D2E/DX2                !
 ! R3    R(1,4)                  1.0            estimate D2E/DX2                !
 ! R4    R(1,5)                  1.0            estimate D2E/DX2                !
 ! R5    R(2,6)                  1.0            estimate D2E/DX2                !
 ! R6    R(2,7)                  1.0            estimate D2E/DX2                !
 ! R7    R(2,8)                  1.0            estimate D2E/DX2                !
 ! A1    A(2,1,3)              109.0021         estimate D2E/DX2                !
 ! A2    A(2,1,4)              109.002          estimate D2E/DX2                !
 ! A3    A(2,1,5)              109.002          estimate D2E/DX2                !
 ! A4    A(3,1,4)              109.9391         estimate D2E/DX2                !
 ! A5    A(3,1,5)              109.9391         estimate D2E/DX2                !
 ! A6    A(4,1,5)              109.9306         estimate D2E/DX2                !
 ! A7    A(1,2,6)              109.0021         estimate D2E/DX2                !
 ! A8    A(1,2,7)              109.002          estimate D2E/DX2                !
 ! A9    A(1,2,8)              109.002          estimate D2E/DX2                !
 ! A10   A(6,2,7)              109.9391         estimate D2E/DX2                !
 ! A11   A(6,2,8)              109.9391         estimate D2E/DX2                !
 ! A12   A(7,2,8)              109.9306         estimate D2E/DX2                !
 ! D1    D(3,1,2,6)            180.0            Scan                            !
 ! D2    D(3,1,2,7)            -59.9966         estimate D2E/DX2                !
 ! D3    D(3,1,2,8)             59.9966         estimate D2E/DX2                !
 ! D4    D(4,1,2,6)            -59.9966         estimate D2E/DX2                !
 ! D5    D(4,1,2,7)             60.0069         estimate D2E/DX2                !
 ! D6    D(4,1,2,8)            180.0            estimate D2E/DX2                !
 ! D7    D(5,1,2,6)             59.9966         estimate D2E/DX2                !
 ! D8    D(5,1,2,7)            180.0            estimate D2E/DX2                !
 ! D9    D(5,1,2,8)            -60.0069         estimate D2E/DX2                !
 --------------------------------------------------------------------------------
 Trust Radius=3.00D-01 FncErr=1.00D-07 GrdErr=1.00D-07 EigMax=2.50D+02 EigMin=1.00D-04
 Number of optimizations in scan=  37
 Number of steps in this run=     38 maximum allowed number of steps=    100.
 GradGradGradGradGradGradGradGradGradGradGradGradGradGradGradGradGradGrad

                          Input orientation:                          
 ---------------------------------------------------------------------
 Center     Atomic      Atomic             Coordinates (Angstroms)
 Number     Number       Type             X           Y           Z
 ---------------------------------------------------------------------
      1          6           0        0.000000    0.000000    0.000000
      2          6           0       -1.500000    0.000000    0.000000
      3          1           0        0.325600   -0.945500    0.000000
      4          1           0        0.325600    0.472800   -0.818800
      5          1           0        0.325600    0.472800    0.818800
      6          1           0       -1.825600    0.945500    0.000000
      7          1           0       -1.825600   -0.472800   -0.818800
      8          1           0       -1.825600   -0.472800    0.818800
 ---------------------------------------------------------------------
                    Distance matrix (angstroms):
                    1          2          3          4          5
     1  C    0.000000
     2  C    1.500000   0.000000
     3  H    0.999993   2.055915   0.000000
     4  H    0.999994   2.055916   1.637684   0.000000
     5  H    0.999994   2.055916   1.637684   1.637600   0.000000
     6  H    2.055915   0.999993   2.864183   2.349796   2.349796
     7  H    2.055916   0.999994   2.349796   2.349855   2.864185
     8  H    2.055916   0.999994   2.349796   2.864185   2.349855
                    6          7          8
     6  H    0.000000
     7  H    1.637684   0.000000
     8  H    1.637684   1.637600   0.000000
 Stoichiometry    C2H6
 Framework group  C2H[SGH(C2H2),X(H4)]
 Deg. of freedom     6
 Full point group                 C2H     NOp   4
 Largest Abelian subgroup         C2H     NOp   4
 Largest concise Abelian subgroup C2H     NOp   4
                         Standard orientation:                         
 ---------------------------------------------------------------------
 Center     Atomic      Atomic             Coordinates (Angstroms)
 Number     Number       Type             X           Y           Z
 ---------------------------------------------------------------------
      1          6           0        0.000000    0.750000    0.000000
      2          6           0       -0.000000   -0.750000    0.000000
      3          1           0       -0.945500    1.075600    0.000000
      4          1           0        0.472800    1.075600    0.818800
      5          1           0        0.472800    1.075600   -0.818800
      6          1           0        0.945500   -1.075600    0.000000
      7          1           0       -0.472800   -1.075600    0.818800
      8          1           0       -0.472800   -1.075600   -0.818800
 ---------------------------------------------------------------------
 Rotational constants (GHZ):          93.4881915          21.7849602          21.7846137
 Standard basis: 6-31G(d) (6D, 7F)
 There are    15 symmetry adapted cartesian basis functions of AG  symmetry.
 There are     6 symmetry adapted cartesian basis functions of BG  symmetry.
 There are     6 symmetry adapted cartesian basis functions of AU  symmetry.
 There are    15 symmetry adapted cartesian basis functions of BU  symmetry.
 There are    15 symmetry adapted basis functions of AG  symmetry.
 There are     6 symmetry adapted basis functions of BG  symmetry.
 There are     6 symmetry adapted basis functions of AU  symmetry.
 There are    15 symmetry adapted basis functions of BU  symmetry.
    42 basis functions,    80 primitive gaussians,    42 cartesian basis functions
     9 alpha electrons        9 beta electrons
       nuclear repulsion energy        44.8611333526 Hartrees.
 NAtoms=    8 NActive=    8 NUniq=    3 SFac= 4.00D+00 NAtFMM=   60 NAOKFM=F Big=F
 Integral buffers will be    131072 words long.
 Raffenetti 2 integral format.
 Two-electron integral symmetry is turned on.
 One-electron integrals computed using PRISM.
 NBasis=    42 RedAO= T EigKep=  6.52D-03  NBF=    15     6     6    15
 NBsUse=    42 1.00D-06 EigRej= -1.00D+00 NBFU=    15     6     6    15
 ExpMin= 1.61D-01 ExpMax= 3.05D+03 ExpMxC= 4.57D+02 IAcc=3 IRadAn=         5 AccDes= 0.00D+00
 Harris functional with IExCor=  205 and IRadAn=       5 diagonalized for initial guess.
 HarFok:  IExCor=  205 AccDes= 0.00D+00 IRadAn=         5 IDoV= 1 UseB2=F ITyADJ=14
 ICtDFT=  3500011 ScaDFX=  1.000000  1.000000  1.000000  1.000000
 FoFCou: FMM=F IPFlag=           0 FMFlag=      100000 FMFlg1=           0
         NFxFlg=           0 DoJE=T BraDBF=F KetDBF=T FulRan=T
         wScrn=  0.000000 ICntrl=       500 IOpCl=  0 I1Cent=   200000004 NGrid=           0
         NMat0=    1 NMatS0=      1 NMatT0=    0 NMatD0=    1 NMtDS0=    0 NMtDT0=    0
 Petite list used in FoFCou.
 Initial guess orbital symmetries:
 Alpha Orbitals:
       Occupied  (AG) (BU) (AG) (BU) (BU) (AU) (AG) (AG) (BG)
       Virtual   (AG) (BU) (AU) (BU) (BG) (AG) (BU) (AG) (AU) (BU)
                 (BG) (AG) (BU) (AU) (BU) (BG) (AG) (AG) (BU) (AG)
                 (AU) (BU) (BU) (AG) (AG) (BG) (AG) (BG) (BU) (AU)
                 (BU) (AG) (BU)
 Beta  Orbitals:
       Occupied  (AG) (BU) (AG) (BU) (BU) (AU) (AG) (AG) (BG)
       Virtual   (AG) (BU) (AU) (BU) (BG) (AG) (BU) (AG) (AU) (BU)
                 (BG) (AG) (BU) (AU) (BU) (BG) (AG) (AG) (BU) (AG)
                 (AU) (BU) (BU) (AG) (AG) (BG) (AG) (BG) (BU) (AU)
                 (BU) (AG) (BU)
 The electronic state of the initial guess is 1-AG.
 Initial guess <Sx>= 0.0000 <Sy>= 0.0000 <Sz>= 0.0000 <S**2>= 0.0000 S= 0.0000
 Keep R1 and R2 ints in memory in symmetry-blocked form, NReq=1251619.
 Requested convergence on RMS density matrix=1.00D-08 within1000 cycles.
 Requested convergence on MAX density matrix=1.00D-06.
 Requested convergence on             energy=1.00D-06.
 No special actions if energy rises.
 SCF Done:  E(UHF) =  -79.1917277257     A.U. after    9 cycles
            NFock=  9  Conv=0.48D-08     -V/T= 1.9889
 <Sx>= 0.0000 <Sy>= 0.0000 <Sz>= 0.0000 <S**2>= 0.0000 S= 0.0000
 <L.S>= 0.000000000000E+00
 Annihilation of the first spin contaminant:
 S**2 before annihilation     0.0000,   after    -0.0000

 **********************************************************************

            Population analysis using the SCF Density.

 **********************************************************************

 Orbital symmetries:
 Alpha Orbitals:
       Occupied  (AG) (BU) (AG) (BU) (BU) (AU) (AG) (BG) (AG)
       Virtual   (AG) (BU) (BU) (AU) (BG) (AG) (BU) (AG) (AU) (BU)
                 (BG) (AG) (BU) (AU) (BU) (AG) (BG) (AG) (AG) (BU)
                 (BU) (AU) (BU) (AG) (AG) (BG) (AG) (BG) (BU) (AU)
                 (BU) (AG) (BU)
 Beta  Orbitals:
       Occupied  (AG) (BU) (AG) (BU) (BU) (AU) (AG) (BG) (AG)
       Virtual   (AG) (BU) (BU) (AU) (BG) (AG) (BU) (AG) (AU) (BU)
                 (BG) (AG) (BU) (AU) (BU) (AG) (BG) (AG) (AG) (BU)
                 (BU) (AU) (BU) (AG) (AG) (BG) (AG) (BG) (BU) (AU)
                 (BU) (AG) (BU)
 The electronic state is 1-AG.
 Alpha  occ. eigenvalues --  -11.17147 -11.17080  -1.04988  -0.87079  -0.62967
 Alpha  occ. eigenvalues --   -0.62964  -0.51020  -0.51018  -0.50114
 Alpha virt. eigenvalues --    0.25235   0.32426   0.34786   0.34786   0.34958
 Alpha virt. eigenvalues --    0.34958   0.42311   0.69054   0.73143   0.73145
 Alpha virt. eigenvalues --    0.79781   0.79783   0.97791   1.23514   1.23516
 Alpha virt. eigenvalues --    1.30610   1.30659   1.30663   1.34029   1.38065
 Alpha virt. eigenvalues --    1.73116   1.78721   1.78724   2.34506   2.35871
 Alpha virt. eigenvalues --    2.35874   2.75465   2.75466   2.78086   2.78092
 Alpha virt. eigenvalues --    2.99301   4.65596   4.84400
  Beta  occ. eigenvalues --  -11.17147 -11.17080  -1.04988  -0.87079  -0.62967
  Beta  occ. eigenvalues --   -0.62964  -0.51020  -0.51018  -0.50114
  Beta virt. eigenvalues --    0.25235   0.32426   0.34786   0.34786   0.34958
  Beta virt. eigenvalues --    0.34958   0.42311   0.69054   0.73143   0.73145
  Beta virt. eigenvalues --    0.79781   0.79783   0.97791   1.23514   1.23516
  Beta virt. eigenvalues --    1.30610   1.30659   1.30663   1.34029   1.38065
  Beta virt. eigenvalues --    1.73116   1.78721   1.78724   2.34506   2.35871
  Beta virt. eigenvalues --    2.35874   2.75465   2.75466   2.78086   2.78092
  Beta virt. eigenvalues --    2.99301   4.65596   4.84400
          Condensed to atoms (all electrons):
               1          2          3          4          5          6
     1  C    5.031508   0.360564   0.407648   0.407649   0.407649  -0.042109
     2  C    0.360564   5.031508  -0.042109  -0.042108  -0.042108   0.407648
     3  H    0.407648  -0.042109   0.534785  -0.030423  -0.030423   0.005947
     4  H    0.407649  -0.042108  -0.030423   0.534802  -0.030438  -0.004163
     5  H    0.407649  -0.042108  -0.030423  -0.030438   0.534802  -0.004163
     6  H   -0.042109   0.407648   0.005947  -0.004163  -0.004163   0.534785
     7  H   -0.042108   0.407649  -0.004163  -0.004164   0.005947  -0.030423
     8  H   -0.042108   0.407649  -0.004163   0.005947  -0.004164  -0.030423
               7          8
     1  C   -0.042108  -0.042108
     2  C    0.407649   0.407649
     3  H   -0.004163  -0.004163
     4  H   -0.004164   0.005947
     5  H    0.005947  -0.004164
     6  H   -0.030423  -0.030423
     7  H    0.534802  -0.030438
     8  H   -0.030438   0.534802
          Atomic-Atomic Spin Densities.
               1          2          3          4          5          6
     1  C    0.000000   0.000000   0.000000   0.000000   0.000000   0.000000
     2  C    0.000000   0.000000   0.000000   0.000000   0.000000   0.000000
     3  H    0.000000   0.000000   0.000000   0.000000   0.000000   0.000000
     4  H    0.000000   0.000000   0.000000   0.000000   0.000000   0.000000
     5  H    0.000000   0.000000   0.000000   0.000000   0.000000   0.000000
     6  H    0.000000   0.000000   0.000000   0.000000   0.000000   0.000000
     7  H    0.000000   0.000000   0.000000   0.000000   0.000000   0.000000
     8  H    0.000000   0.000000   0.000000   0.000000   0.000000   0.000000
               7          8
     1  C    0.000000   0.000000
     2  C    0.000000   0.000000
     3  H    0.000000   0.000000
     4  H    0.000000   0.000000
     5  H    0.000000   0.000000
     6  H    0.000000   0.000000
     7  H    0.000000   0.000000
     8  H    0.000000   0.000000
 Mulliken charges and spin densities:
               1          2
     1  C   -0.488694   0.000000
     2  C   -0.488694   0.000000
     3  H    0.162900   0.000000
     4  H    0.162897   0.000000
     5  H    0.162897   0.000000
     6  H    0.162900   0.000000
     7  H    0.162897   0.000000
     8  H    0.162897   0.000000
 Sum of Mulliken charges =   0.00000   0.00000
 Mulliken charges and spin densities with hydrogens summed into heavy atoms:
               1          2
     1  C    0.000000   0.000000
     2  C    0.000000   0.000000
 Electronic spatial extent (au):  <R**2>=            100.8284
 Charge=              0.0000 electrons
 Dipole moment (field-independent basis, Debye):
    X=             -0.0000    Y=              0.0000    Z=              0.0000  Tot=              0.0000
 Quadrupole moment (field-independent basis, Debye-Ang):
   XX=            -14.3416   YY=            -15.4072   ZZ=            -14.3422
   XY=              0.0001   XZ=              0.0000   YZ=             -0.0000
 Traceless Quadrupole moment (field-independent basis, Debye-Ang):
   XX=              0.3554   YY=             -0.7102   ZZ=              0.3548
   XY=              0.0001   XZ=              0.0000   YZ=             -0.0000
 Octapole moment (field-independent basis, Debye-Ang**2):
  XXX=              0.0000  YYY=             -0.0000  ZZZ=              0.0000  XYY=              0.0000
  XXY=              0.0000  XXZ=              0.0000  XZZ=              0.0000  YZZ=              0.0000
  YYZ=              0.0000  XYZ=             -0.0000
 Hexadecapole moment (field-independent basis, Debye-Ang**3):
 XXXX=            -25.0427 YYYY=            -83.8210 ZZZZ=            -25.0424 XXXY=             -0.8077
 XXXZ=              0.0000 YYYX=             -0.0002 YYYZ=              0.0000 ZZZX=             -0.0000
 ZZZY=              0.0000 XXYY=            -17.5083 XXZZ=             -8.3474 YYZZ=            -17.5088
 XXYZ=             -0.0000 YYXZ=              0.0000 ZZXY=              0.8072
 N-N= 4.486113335256D+01 E-N=-2.741022060334D+02  KE= 8.008401250432D+01
 Symmetry AG   KE= 3.935676189529D+01
 Symmetry BG   KE= 2.245170723811D+00
 Symmetry AU   KE= 1.914562370944D+00
 Symmetry BU   KE= 3.656751751427D+01
 Symmetry AG   SP= 0.000000000000D+00
 Symmetry BG   SP= 0.000000000000D+00
 Symmetry AU   SP= 0.000000000000D+00
 Symmetry BU   SP= 0.000000000000D+00
                          Isotropic Fermi Contact Couplings
        Atom                 a.u.       MegaHertz       Gauss      10(-4) cm-1
     1  C(13)              0.00000       0.00000       0.00000       0.00000
     2  C(13)              0.00000       0.00000       0.00000       0.00000
     3  H(1)               0.00000       0.00000       0.00000       0.00000
     4  H(1)               0.00000       0.00000       0.00000       0.00000
     5  H(1)               0.00000       0.00000       0.00000       0.00000
     6  H(1)               0.00000       0.00000       0.00000       0.00000
     7  H(1)               0.00000       0.00000       0.00000       0.00000
     8  H(1)               0.00000       0.00000       0.00000       0.00000
 --------------------------------------------------------
       Center         ----  Spin Dipole Couplings  ----
                      3XX-RR        3YY-RR        3ZZ-RR
 --------------------------------------------------------
     1   Atom        0.000000      0.000000      0.000000
     2   Atom        0.000000      0.000000      0.000000
     3   Atom        0.000000      0.000000      0.000000
     4   Atom        0.000000      0.000000      0.000000
     5   Atom        0.000000      0.000000      0.000000
     6   Atom        0.000000      0.000000      0.000000
     7   Atom        0.000000      0.000000      0.000000
     8   Atom        0.000000      0.000000      0.000000
 --------------------------------------------------------
                        XY            XZ            YZ
 --------------------------------------------------------
     1   Atom        0.000000      0.000000      0.000000
     2   Atom        0.000000      0.000000      0.000000
     3   Atom        0.000000      0.000000      0.000000
     4   Atom        0.000000      0.000000      0.000000
     5   Atom        0.000000      0.000000      0.000000
     6   Atom        0.000000      0.000000      0.000000
     7   Atom        0.000000      0.000000      0.000000
     8   Atom        0.000000      0.000000      0.000000
 --------------------------------------------------------


 ---------------------------------------------------------------------------------
              Anisotropic Spin Dipole Couplings in Principal Axis System
 ---------------------------------------------------------------------------------

       Atom             a.u.   MegaHertz   Gauss  10(-4) cm-1        Axes

              Baa     0.0000     0.000     0.000     0.000  1.0000  0.0000  0.0000
     1 C(13)  Bbb     0.0000     0.000     0.000     0.000 -0.0000  1.0000  0.0000
              Bcc     0.0000     0.000     0.000     0.000  0.0000  0.0000  1.0000
 
              Baa     0.0000     0.000     0.000     0.000  1.0000  0.0000  0.0000
     2 C(13)  Bbb     0.0000     0.000     0.000     0.000 -0.0000  1.0000  0.0000
              Bcc     0.0000     0.000     0.000     0.000  0.0000  0.0000  1.0000
 
              Baa     0.0000     0.000     0.000     0.000  1.0000  0.0000  0.0000
     3 H(1)   Bbb     0.0000     0.000     0.000     0.000 -0.0000  1.0000  0.0000
              Bcc     0.0000     0.000     0.000     0.000  0.0000  0.0000  1.0000
 
              Baa     0.0000     0.000     0.000     0.000  1.0000  0.0000  0.0000
     4 H(1)   Bbb     0.0000     0.000     0.000     0.000 -0.0000  1.0000  0.0000
              Bcc     0.0000     0.000     0.000     0.000  0.0000  0.0000  1.0000
 
              Baa     0.0000     0.000     0.000     0.000  1.0000  0.0000  0.0000
     5 H(1)   Bbb     0.0000     0.000     0.000     0.000 -0.0000  1.0000  0.0000
              Bcc     0.0000     0.000     0.000     0.000  0.0000  0.0000  1.0000
 
              Baa     0.0000     0.000     0.000     0.000  1.0000  0.0000  0.0000
     6 H(1)   Bbb     0.0000     0.000     0.000     0.000 -0.0000  1.0000  0.0000
              Bcc     0.0000     0.000     0.000     0.000  0.0000  0.0000  1.0000
 
              Baa     0.0000     0.000     0.000     0.000  1.0000  0.0000  0.0000
     7 H(1)   Bbb     0.0000     0.000     0.000     0.000 -0.0000  1.0000  0.0000
              Bcc     0.0000     0.000     0.000     0.000  0.0000  0.0000  1.0000
 
              Baa     0.0000     0.000     0.000     0.000  1.0000  0.0000  0.0000
     8 H(1)   Bbb     0.0000     0.000     0.000     0.000 -0.0000  1.0000  0.0000
              Bcc     0.0000     0.000     0.000     0.000  0.0000  0.0000  1.0000
 

 ---------------------------------------------------------------------------------

 Calling FoFJK, ICntrl=      2127 FMM=F ISym2X=1 I1Cent= 0 IOpClX= 1 NMat=1 NMatS=1 NMatT=0.
 ***** Axes restored to original set *****
 -------------------------------------------------------------------
 Center     Atomic                   Forces (Hartrees/Bohr)
 Number     Number              X              Y              Z
 -------------------------------------------------------------------
      1        6          -0.062661964    0.000008919    0.000000000
      2        6           0.062661964   -0.000008919    0.000000000
      3        1           0.031392037   -0.071328595   -0.000000000
      4        1           0.031386401    0.035660170   -0.061778317
      5        1           0.031386401    0.035660170    0.061778317
      6        1          -0.031392037    0.071328595    0.000000000
      7        1          -0.031386401   -0.035660170   -0.061778317
      8        1          -0.031386401   -0.035660170    0.061778317
 -------------------------------------------------------------------
 Cartesian Forces:  Max     0.071328595 RMS     0.042959651

 GradGradGradGradGradGradGradGradGradGradGradGradGradGradGradGradGradGrad
 Berny optimization.
 FormGI is forming the generalized inverse of G from B-inverse, IUseBI=4.
 Internal  Forces:  Max     0.077664067 RMS     0.036662682
 Search for a local minimum.
 Step number   1 out of a maximum of   38 on scan point     1 out of    37
 All quantities printed in internal units (Hartrees-Bohrs-Radians)
 Mixed Optimization -- RFO/linear search
 Second derivative matrix not updated -- first step.
 ITU=  0
     Eigenvalues ---    0.02267   0.06149   0.06149   0.06149   0.16000
     Eigenvalues ---    0.16000   0.16000   0.16000   0.16000   0.16000
     Eigenvalues ---    0.32377   0.47689   0.47689   0.47689   0.47689
     Eigenvalues ---    0.47690   0.476901000.000001000.000001000.00000
     Eigenvalues --- 1000.000001000.000001000.000001000.000001000.00000
     Eigenvalues --- 1000.000001000.000001000.00000
 RFO step:  Lambda=-7.05875969D-02 EMin= 2.26667449D-02
 Linear search not attempted -- first point.
 Maximum step size (   0.300) exceeded in Quadratic search.
    -- Step size scaled by   0.815
 Iteration  1 RMS(Cart)=  0.06780095 RMS(Int)=  0.00071764
 Iteration  2 RMS(Cart)=  0.00096876 RMS(Int)=  0.00016478
 Iteration  3 RMS(Cart)=  0.00000071 RMS(Int)=  0.00016478
 Iteration  1 RMS(Cart)=  0.00000000 RMS(Int)=  0.00000000
 ClnCor:  largest displacement from symmetrization is 7.54D-13 for atom     2.
 Variable       Old X    -DE/DX   Delta X   Delta X   Delta X     New X
                                 (Linear)    (Quad)   (Total)
    R1        2.83459   0.03150   0.00000   0.06507   0.06507   2.89966
    R2        1.88971   0.07766   0.00000   0.11554   0.11554   2.00526
    R3        1.88972   0.07766   0.00000   0.11554   0.11554   2.00526
    R4        1.88972   0.07766   0.00000   0.11554   0.11554   2.00526
    R5        1.88971   0.07766   0.00000   0.11554   0.11554   2.00526
    R6        1.88972   0.07766   0.00000   0.11554   0.11554   2.00526
    R7        1.88972   0.07766   0.00000   0.11554   0.11554   2.00526
    A1        1.90245   0.00621   0.00000   0.02192   0.02167   1.92411
    A2        1.90244   0.00620   0.00000   0.02191   0.02166   1.92410
    A3        1.90244   0.00620   0.00000   0.02191   0.02166   1.92410
    A4        1.91880  -0.00610   0.00000  -0.02155  -0.02180   1.89700
    A5        1.91880  -0.00610   0.00000  -0.02155  -0.02180   1.89700
    A6        1.91865  -0.00609   0.00000  -0.02149  -0.02174   1.89691
    A7        1.90245   0.00621   0.00000   0.02192   0.02167   1.92411
    A8        1.90244   0.00620   0.00000   0.02191   0.02166   1.92410
    A9        1.90244   0.00620   0.00000   0.02191   0.02166   1.92410
   A10        1.91880  -0.00610   0.00000  -0.02155  -0.02180   1.89700
   A11        1.91880  -0.00610   0.00000  -0.02155  -0.02180   1.89700
   A12        1.91865  -0.00609   0.00000  -0.02149  -0.02174   1.89691
    D1        3.14159   0.00000   0.00000   0.00000   0.00000   3.14159
    D2       -1.04714  -0.00000   0.00000  -0.00002  -0.00002  -1.04716
    D3        1.04714   0.00000   0.00000   0.00002   0.00002   1.04716
    D4       -1.04714  -0.00000   0.00000  -0.00002  -0.00002  -1.04716
    D5        1.04732  -0.00001   0.00000  -0.00004  -0.00004   1.04728
    D6        3.14159   0.00000   0.00000   0.00000   0.00000   3.14159
    D7        1.04714   0.00000   0.00000   0.00002   0.00002   1.04716
    D8        3.14159  -0.00000   0.00000  -0.00000   0.00000   3.14159
    D9       -1.04732   0.00001   0.00000   0.00004   0.00004  -1.04728
         Item               Value     Threshold  Converged?
 Maximum Force            0.077664     0.000450     NO 
 RMS     Force            0.037335     0.000300     NO 
 Maximum Displacement     0.111089     0.001800     NO 
 RMS     Displacement     0.068112     0.001200     NO 
 Predicted change in Energy=-3.725573D-02
 GradGradGradGradGradGradGradGradGradGradGradGradGradGradGradGradGradGrad

                          Input orientation:                          
 ---------------------------------------------------------------------
 Center     Atomic      Atomic             Coordinates (Angstroms)
 Number     Number       Type             X           Y           Z
 ---------------------------------------------------------------------
      1          6           0        0.017216    0.000003    0.000000
      2          6           0       -1.517216   -0.000003    0.000000
      3          1           0        0.384386   -0.995584    0.000000
      4          1           0        0.384369    0.497837   -0.862191
      5          1           0        0.384369    0.497837    0.862191
      6          1           0       -1.884386    0.995584    0.000000
      7          1           0       -1.884369   -0.497837   -0.862191
      8          1           0       -1.884369   -0.497837    0.862191
 ---------------------------------------------------------------------
                    Distance matrix (angstroms):
                    1          2          3          4          5
     1  C    0.000000
     2  C    1.534432   0.000000
     3  H    1.061135   2.146455   0.000000
     4  H    1.061138   2.146449   1.724436   0.000000
     5  H    1.061138   2.146449   1.724436   1.724383   0.000000
     6  H    2.146455   1.061135   3.018622   2.477575   2.477575
     7  H    2.146449   1.061138   2.477575   2.477607   3.018614
     8  H    2.146449   1.061138   2.477575   3.018614   2.477607
                    6          7          8
     6  H    0.000000
     7  H    1.724436   0.000000
     8  H    1.724436   1.724383   0.000000
 Stoichiometry    C2H6
 Framework group  C2H[SGH(C2H2),X(H4)]
 Deg. of freedom     6
 Full point group                 C2H     NOp   4
 Largest Abelian subgroup         C2H     NOp   4
 Largest concise Abelian subgroup C2H     NOp   4
                         Standard orientation:                         
 ---------------------------------------------------------------------
 Center     Atomic      Atomic             Coordinates (Angstroms)
 Number     Number       Type             X           Y           Z
 ---------------------------------------------------------------------
      1          6           0        0.000000    0.767216    0.000000
      2          6           0       -0.000000   -0.767216    0.000000
      3          1           0       -0.995589    1.134382    0.000000
      4          1           0        0.497832    1.134371    0.862191
      5          1           0        0.497832    1.134371   -0.862191
      6          1           0        0.995589   -1.134382    0.000000
      7          1           0       -0.497832   -1.134371    0.862191
      8          1           0       -0.497832   -1.134371   -0.862191
 ---------------------------------------------------------------------
 Rotational constants (GHZ):          84.3173062          20.2923559          20.2921547
 Standard basis: 6-31G(d) (6D, 7F)
 There are    15 symmetry adapted cartesian basis functions of AG  symmetry.
 There are     6 symmetry adapted cartesian basis functions of BG  symmetry.
 There are     6 symmetry adapted cartesian basis functions of AU  symmetry.
 There are    15 symmetry adapted cartesian basis functions of BU  symmetry.
 There are    15 symmetry adapted basis functions of AG  symmetry.
 There are     6 symmetry adapted basis functions of BG  symmetry.
 There are     6 symmetry adapted basis functions of AU  symmetry.
 There are    15 symmetry adapted basis functions of BU  symmetry.
    42 basis functions,    80 primitive gaussians,    42 cartesian basis functions
     9 alpha electrons        9 beta electrons
       nuclear repulsion energy        42.8920234096 Hartrees.
 NAtoms=    8 NActive=    8 NUniq=    3 SFac= 4.00D+00 NAtFMM=   60 NAOKFM=F Big=F
 Integral buffers will be    131072 words long.
 Raffenetti 2 integral format.
 Two-electron integral symmetry is turned on.
 One-electron integrals computed using PRISM.
 NBasis=    42 RedAO= T EigKep=  7.92D-03  NBF=    15     6     6    15
 NBsUse=    42 1.00D-06 EigRej= -1.00D+00 NBFU=    15     6     6    15
 Initial guess from the checkpoint file:  "HC_CT_CT_HC_multiplicity_1.chk"
 B after Tr=     0.000000   -0.000000   -0.000000
         Rot=    1.000000   -0.000000   -0.000000   -0.000001 Ang=  -0.00 deg.
 Initial guess orbital symmetries:
 Alpha Orbitals:
       Occupied  (AG) (BU) (AG) (BU) (BU) (AU) (AG) (BG) (AG)
       Virtual   (AG) (BU) (BU) (AU) (BG) (AG) (BU) (AG) (AU) (BU)
                 (BG) (AG) (BU) (AU) (BU) (AG) (BG) (AG) (AG) (BU)
                 (BU) (AU) (BU) (AG) (AG) (BG) (AG) (BG) (BU) (AU)
                 (BU) (AG) (BU)
 Beta  Orbitals:
       Occupied  (AG) (BU) (AG) (BU) (BU) (AU) (AG) (BG) (AG)
       Virtual   (AG) (BU) (BU) (AU) (BG) (AG) (BU) (AG) (AU) (BU)
                 (BG) (AG) (BU) (AU) (BU) (AG) (BG) (AG) (AG) (BU)
                 (BU) (AU) (BU) (AG) (AG) (BG) (AG) (BG) (BU) (AU)
                 (BU) (AG) (BU)
 Initial guess <Sx>= 0.0000 <Sy>= 0.0000 <Sz>= 0.0000 <S**2>=-0.0000 S=-0.0000
 ExpMin= 1.61D-01 ExpMax= 3.05D+03 ExpMxC= 4.57D+02 IAcc=3 IRadAn=         5 AccDes= 0.00D+00
 Harris functional with IExCor=  205 and IRadAn=       5 diagonalized for initial guess.
 HarFok:  IExCor=  205 AccDes= 0.00D+00 IRadAn=         5 IDoV= 1 UseB2=F ITyADJ=14
 ICtDFT=  3500011 ScaDFX=  1.000000  1.000000  1.000000  1.000000
 FoFCou: FMM=F IPFlag=           0 FMFlag=      100000 FMFlg1=           0
         NFxFlg=           0 DoJE=T BraDBF=F KetDBF=T FulRan=T
         wScrn=  0.000000 ICntrl=       500 IOpCl=  0 I1Cent=   200000004 NGrid=           0
         NMat0=    1 NMatS0=      1 NMatT0=    0 NMatD0=    1 NMtDS0=    0 NMtDT0=    0
 Petite list used in FoFCou.
 Keep R1 and R2 ints in memory in symmetry-blocked form, NReq=1251605.
 Requested convergence on RMS density matrix=1.00D-08 within1000 cycles.
 Requested convergence on MAX density matrix=1.00D-06.
 Requested convergence on             energy=1.00D-06.
 No special actions if energy rises.
 SCF Done:  E(UHF) =  -79.2260331794     A.U. after    9 cycles
            NFock=  9  Conv=0.35D-08     -V/T= 1.9977
 <Sx>= 0.0000 <Sy>= 0.0000 <Sz>= 0.0000 <S**2>= 0.0000 S= 0.0000
 <L.S>= 0.000000000000E+00
 Annihilation of the first spin contaminant:
 S**2 before annihilation    -0.0000,   after    -0.0000
 Calling FoFJK, ICntrl=      2127 FMM=F ISym2X=1 I1Cent= 0 IOpClX= 1 NMat=1 NMatS=1 NMatT=0.
 ***** Axes restored to original set *****
 -------------------------------------------------------------------
 Center     Atomic                   Forces (Hartrees/Bohr)
 Number     Number              X              Y              Z
 -------------------------------------------------------------------
      1        6          -0.024759925    0.000010550   -0.000000000
      2        6           0.024759925   -0.000010550   -0.000000000
      3        1           0.008483772   -0.016511975   -0.000000000
      4        1           0.008481314    0.008251762   -0.014303199
      5        1           0.008481314    0.008251762    0.014303199
      6        1          -0.008483772    0.016511975   -0.000000000
      7        1          -0.008481314   -0.008251762   -0.014303199
      8        1          -0.008481314   -0.008251762    0.014303199
 -------------------------------------------------------------------
 Cartesian Forces:  Max     0.024759925 RMS     0.011714966

 GradGradGradGradGradGradGradGradGradGradGradGradGradGradGradGradGradGrad
 Berny optimization.
 Using GEDIIS/GDIIS optimizer.
 FormGI is forming the generalized inverse of G from B-inverse, IUseBI=4.
 Internal  Forces:  Max     0.018427528 RMS     0.008654070
 Search for a local minimum.
 Step number   2 out of a maximum of   38 on scan point     1 out of    37
 All quantities printed in internal units (Hartrees-Bohrs-Radians)
 Mixed Optimization -- RFO/linear search
 Update second derivatives using D2CorX and points    1    2
 DE= -3.43D-02 DEPred=-3.73D-02 R= 9.21D-01
 TightC=F SS=  1.41D+00  RLast= 3.00D-01 DXNew= 5.0454D-01 8.9999D-01
 Trust test= 9.21D-01 RLast= 3.00D-01 DXMaxT set to 5.05D-01
 ITU=  1  0
 Use linear search instead of GDIIS.
     Eigenvalues ---    0.02182   0.05926   0.05927   0.05927   0.16000
     Eigenvalues ---    0.16000   0.16000   0.16000   0.16000   0.16051
     Eigenvalues ---    0.32885   0.47689   0.47689   0.47689   0.47690
     Eigenvalues ---    0.47690   0.509881000.000001000.000001000.00000
     Eigenvalues --- 1000.000001000.000001000.000001000.000001000.00000
     Eigenvalues --- 1000.000001000.000001000.00000
 RFO step:  Lambda=-4.08239488D-04 EMin= 2.18168437D-02
 Quartic linear search produced a step of  0.38205.
 Iteration  1 RMS(Cart)=  0.02631412 RMS(Int)=  0.00026254
 Iteration  2 RMS(Cart)=  0.00027223 RMS(Int)=  0.00016196
 Iteration  3 RMS(Cart)=  0.00000010 RMS(Int)=  0.00016196
 Iteration  1 RMS(Cart)=  0.00000000 RMS(Int)=  0.00000000
 ClnCor:  largest displacement from symmetrization is 2.01D-09 for atom     6.
 Variable       Old X    -DE/DX   Delta X   Delta X   Delta X     New X
                                 (Linear)    (Quad)   (Total)
    R1        2.89966   0.00069   0.02486  -0.02622  -0.00136   2.89829
    R2        2.00526   0.01843   0.04414   0.00098   0.04512   2.05038
    R3        2.00526   0.01843   0.04414   0.00098   0.04512   2.05038
    R4        2.00526   0.01843   0.04414   0.00098   0.04512   2.05038
    R5        2.00526   0.01843   0.04414   0.00098   0.04512   2.05038
    R6        2.00526   0.01843   0.04414   0.00098   0.04512   2.05038
    R7        2.00526   0.01843   0.04414   0.00098   0.04512   2.05038
    A1        1.92411   0.00219   0.00828   0.00961   0.01763   1.94175
    A2        1.92410   0.00219   0.00827   0.00963   0.01765   1.94175
    A3        1.92410   0.00219   0.00827   0.00963   0.01765   1.94175
    A4        1.89700  -0.00225  -0.00833  -0.00992  -0.01849   1.87851
    A5        1.89700  -0.00225  -0.00833  -0.00992  -0.01849   1.87851
    A6        1.89691  -0.00225  -0.00831  -0.00983  -0.01838   1.87853
    A7        1.92411   0.00219   0.00828   0.00961   0.01763   1.94175
    A8        1.92410   0.00219   0.00827   0.00963   0.01765   1.94175
    A9        1.92410   0.00219   0.00827   0.00963   0.01765   1.94175
   A10        1.89700  -0.00225  -0.00833  -0.00992  -0.01849   1.87851
   A11        1.89700  -0.00225  -0.00833  -0.00992  -0.01849   1.87851
   A12        1.89691  -0.00225  -0.00831  -0.00983  -0.01838   1.87853
    D1        3.14159  -0.00000   0.00000   0.00000   0.00000   3.14159
    D2       -1.04716  -0.00000  -0.00001  -0.00004  -0.00005  -1.04721
    D3        1.04716   0.00000   0.00001   0.00004   0.00005   1.04721
    D4       -1.04716  -0.00000  -0.00001  -0.00004  -0.00005  -1.04721
    D5        1.04728  -0.00000  -0.00002  -0.00008  -0.00010   1.04718
    D6        3.14159   0.00000   0.00000   0.00000   0.00000   3.14159
    D7        1.04716   0.00000   0.00001   0.00004   0.00005   1.04721
    D8        3.14159   0.00000   0.00000   0.00000   0.00000   3.14159
    D9       -1.04728   0.00000   0.00002   0.00008   0.00010  -1.04718
         Item               Value     Threshold  Converged?
 Maximum Force            0.018428     0.000450     NO 
 RMS     Force            0.008813     0.000300     NO 
 Maximum Displacement     0.048778     0.001800     NO 
 RMS     Displacement     0.026387     0.001200     NO 
 Predicted change in Energy=-2.047166D-03
 GradGradGradGradGradGradGradGradGradGradGradGradGradGradGradGradGradGrad

                          Input orientation:                          
 ---------------------------------------------------------------------
 Center     Atomic      Atomic             Coordinates (Angstroms)
 Number     Number       Type             X           Y           Z
 ---------------------------------------------------------------------
      1          6           0        0.016855    0.000020    0.000000
      2          6           0       -1.516855   -0.000020    0.000000
      3          1           0        0.410198   -1.011184    0.000000
      4          1           0        0.410169    0.505627   -0.875742
      5          1           0        0.410169    0.505627    0.875742
      6          1           0       -1.910198    1.011184    0.000000
      7          1           0       -1.910169   -0.505627   -0.875742
      8          1           0       -1.910169   -0.505627    0.875742
 ---------------------------------------------------------------------
                    Distance matrix (angstroms):
                    1          2          3          4          5
     1  C    0.000000
     2  C    1.533710   0.000000
     3  H    1.085012   2.176232   0.000000
     4  H    1.085015   2.176240   1.751468   0.000000
     5  H    1.085015   2.176240   1.751468   1.751483   0.000000
     6  H    2.176232   1.085012   3.078021   2.531129   2.531129
     7  H    2.176240   1.085015   2.531129   2.531126   3.078034
     8  H    2.176240   1.085015   2.531129   3.078034   2.531126
                    6          7          8
     6  H    0.000000
     7  H    1.751468   0.000000
     8  H    1.751468   1.751483   0.000000
 Stoichiometry    C2H6
 Framework group  C2H[SGH(C2H2),X(H4)]
 Deg. of freedom     6
 Full point group                 C2H     NOp   4
 Largest Abelian subgroup         C2H     NOp   4
 Largest concise Abelian subgroup C2H     NOp   4
                         Standard orientation:                         
 ---------------------------------------------------------------------
 Center     Atomic      Atomic             Coordinates (Angstroms)
 Number     Number       Type             X           Y           Z
 ---------------------------------------------------------------------
      1          6           0        0.000000    0.766855    0.000000
      2          6           0       -0.000000   -0.766855    0.000000
      3          1           0       -1.011214    1.160172    0.000000
      4          1           0        0.505597    1.160182    0.875742
      5          1           0        0.505597    1.160182   -0.875742
      6          1           0        1.011214   -1.160172    0.000000
      7          1           0       -0.505597   -1.160182    0.875742
      8          1           0       -0.505597   -1.160182   -0.875742
 ---------------------------------------------------------------------
 Rotational constants (GHZ):          81.7325910          19.9403781          19.9403208
 Standard basis: 6-31G(d) (6D, 7F)
 There are    15 symmetry adapted cartesian basis functions of AG  symmetry.
 There are     6 symmetry adapted cartesian basis functions of BG  symmetry.
 There are     6 symmetry adapted cartesian basis functions of AU  symmetry.
 There are    15 symmetry adapted cartesian basis functions of BU  symmetry.
 There are    15 symmetry adapted basis functions of AG  symmetry.
 There are     6 symmetry adapted basis functions of BG  symmetry.
 There are     6 symmetry adapted basis functions of AU  symmetry.
 There are    15 symmetry adapted basis functions of BU  symmetry.
    42 basis functions,    80 primitive gaussians,    42 cartesian basis functions
     9 alpha electrons        9 beta electrons
       nuclear repulsion energy        42.3156120692 Hartrees.
 NAtoms=    8 NActive=    8 NUniq=    3 SFac= 4.00D+00 NAtFMM=   60 NAOKFM=F Big=F
 Integral buffers will be    131072 words long.
 Raffenetti 2 integral format.
 Two-electron integral symmetry is turned on.
 One-electron integrals computed using PRISM.
 NBasis=    42 RedAO= T EigKep=  8.39D-03  NBF=    15     6     6    15
 NBsUse=    42 1.00D-06 EigRej= -1.00D+00 NBFU=    15     6     6    15
 Initial guess from the checkpoint file:  "HC_CT_CT_HC_multiplicity_1.chk"
 B after Tr=    -0.000000    0.000000   -0.000000
         Rot=    1.000000    0.000000   -0.000000   -0.000007 Ang=  -0.00 deg.
 Initial guess orbital symmetries:
 Alpha Orbitals:
       Occupied  (AG) (BU) (AG) (BU) (BU) (AU) (AG) (AG) (BG)
       Virtual   (AG) (BU) (BU) (AU) (BG) (AG) (BU) (AG) (AU) (BU)
                 (BG) (AG) (BU) (AU) (BU) (BG) (AG) (AG) (AG) (BU)
                 (BU) (AU) (BU) (AG) (AG) (BG) (BU) (AU) (BG) (AG)
                 (BU) (AG) (BU)
 Beta  Orbitals:
       Occupied  (AG) (BU) (AG) (BU) (BU) (AU) (AG) (AG) (BG)
       Virtual   (AG) (BU) (BU) (AU) (BG) (AG) (BU) (AG) (AU) (BU)
                 (BG) (AG) (BU) (AU) (BU) (BG) (AG) (AG) (AG) (BU)
                 (BU) (AU) (BU) (AG) (AG) (BG) (BU) (AU) (BG) (AG)
                 (BU) (AG) (BU)
 Initial guess <Sx>= 0.0000 <Sy>= 0.0000 <Sz>= 0.0000 <S**2>=-0.0000 S=-0.0000
 ExpMin= 1.61D-01 ExpMax= 3.05D+03 ExpMxC= 4.57D+02 IAcc=3 IRadAn=         5 AccDes= 0.00D+00
 Harris functional with IExCor=  205 and IRadAn=       5 diagonalized for initial guess.
 HarFok:  IExCor=  205 AccDes= 0.00D+00 IRadAn=         5 IDoV= 1 UseB2=F ITyADJ=14
 ICtDFT=  3500011 ScaDFX=  1.000000  1.000000  1.000000  1.000000
 FoFCou: FMM=F IPFlag=           0 FMFlag=      100000 FMFlg1=           0
         NFxFlg=           0 DoJE=T BraDBF=F KetDBF=T FulRan=T
         wScrn=  0.000000 ICntrl=       500 IOpCl=  0 I1Cent=   200000004 NGrid=           0
         NMat0=    1 NMatS0=      1 NMatT0=    0 NMatD0=    1 NMtDS0=    0 NMtDT0=    0
 Petite list used in FoFCou.
 Keep R1 and R2 ints in memory in symmetry-blocked form, NReq=1251605.
 Requested convergence on RMS density matrix=1.00D-08 within1000 cycles.
 Requested convergence on MAX density matrix=1.00D-06.
 Requested convergence on             energy=1.00D-06.
 No special actions if energy rises.
 SCF Done:  E(UHF) =  -79.2287284586     A.U. after    8 cycles
            NFock=  8  Conv=0.30D-08     -V/T= 2.0004
 <Sx>= 0.0000 <Sy>= 0.0000 <Sz>= 0.0000 <S**2>=-0.0000 S=-0.0000
 <L.S>= 0.000000000000E+00
 Annihilation of the first spin contaminant:
 S**2 before annihilation    -0.0000,   after     0.0000
 Calling FoFJK, ICntrl=      2127 FMM=F ISym2X=1 I1Cent= 0 IOpClX= 1 NMat=1 NMatS=1 NMatT=0.
 ***** Axes restored to original set *****
 -------------------------------------------------------------------
 Center     Atomic                   Forces (Hartrees/Bohr)
 Number     Number              X              Y              Z
 -------------------------------------------------------------------
      1        6          -0.003370345   -0.000001796    0.000000000
      2        6           0.003370345    0.000001796    0.000000000
      3        1          -0.000184786   -0.000473499   -0.000000000
      4        1          -0.000185756    0.000236893   -0.000407427
      5        1          -0.000185756    0.000236893    0.000407427
      6        1           0.000184786    0.000473499   -0.000000000
      7        1           0.000185756   -0.000236893   -0.000407427
      8        1           0.000185756   -0.000236893    0.000407427
 -------------------------------------------------------------------
 Cartesian Forces:  Max     0.003370345 RMS     0.001005436

 GradGradGradGradGradGradGradGradGradGradGradGradGradGradGradGradGradGrad
 Berny optimization.
 Using GEDIIS/GDIIS optimizer.
 FormGI is forming the generalized inverse of G from B-inverse, IUseBI=4.
 Internal  Forces:  Max     0.003926643 RMS     0.000793998
 Search for a local minimum.
 Step number   3 out of a maximum of   38 on scan point     1 out of    37
 All quantities printed in internal units (Hartrees-Bohrs-Radians)
 Mixed Optimization -- En-DIIS/RFO-DIIS
 Update second derivatives using D2CorX and points    1    2    3
 DE= -2.70D-03 DEPred=-2.05D-03 R= 1.32D+00
 TightC=F SS=  1.41D+00  RLast= 1.27D-01 DXNew= 8.4853D-01 3.8100D-01
 Trust test= 1.32D+00 RLast= 1.27D-01 DXMaxT set to 5.05D-01
 ITU=  1  1  0
 Use linear search instead of GDIIS.
     Eigenvalues ---    0.02115   0.05746   0.05746   0.05746   0.15812
     Eigenvalues ---    0.16000   0.16000   0.16000   0.16000   0.16000
     Eigenvalues ---    0.31813   0.42693   0.47689   0.47689   0.47689
     Eigenvalues ---    0.47690   0.476901000.000001000.000001000.00000
     Eigenvalues --- 1000.000001000.000001000.000001000.000001000.00000
     Eigenvalues --- 1000.000001000.000001000.00000
 RFO step:  Lambda=-5.77092287D-05 EMin= 2.11468748D-02
 Quartic linear search produced a step of  0.00632.
 Iteration  1 RMS(Cart)=  0.00466815 RMS(Int)=  0.00000319
 Iteration  2 RMS(Cart)=  0.00000336 RMS(Int)=  0.00000174
 Iteration  3 RMS(Cart)=  0.00000000 RMS(Int)=  0.00000174
 Iteration  1 RMS(Cart)=  0.00000000 RMS(Int)=  0.00000000
 ClnCor:  largest displacement from symmetrization is 2.03D-09 for atom     8.
 Variable       Old X    -DE/DX   Delta X   Delta X   Delta X     New X
                                 (Linear)    (Quad)   (Total)
    R1        2.89829  -0.00393  -0.00001  -0.01191  -0.01192   2.88637
    R2        2.05038   0.00037   0.00028   0.00110   0.00138   2.05176
    R3        2.05038   0.00037   0.00028   0.00109   0.00138   2.05176
    R4        2.05038   0.00037   0.00028   0.00109   0.00138   2.05176
    R5        2.05038   0.00037   0.00028   0.00110   0.00138   2.05176
    R6        2.05038   0.00037   0.00028   0.00109   0.00138   2.05176
    R7        2.05038   0.00037   0.00028   0.00109   0.00138   2.05176
    A1        1.94175  -0.00033   0.00011  -0.00200  -0.00189   1.93985
    A2        1.94175  -0.00033   0.00011  -0.00201  -0.00190   1.93985
    A3        1.94175  -0.00033   0.00011  -0.00201  -0.00190   1.93985
    A4        1.87851   0.00035  -0.00012   0.00214   0.00202   1.88053
    A5        1.87851   0.00035  -0.00012   0.00214   0.00202   1.88053
    A6        1.87853   0.00035  -0.00012   0.00212   0.00200   1.88053
    A7        1.94175  -0.00033   0.00011  -0.00200  -0.00189   1.93985
    A8        1.94175  -0.00033   0.00011  -0.00201  -0.00190   1.93985
    A9        1.94175  -0.00033   0.00011  -0.00201  -0.00190   1.93985
   A10        1.87851   0.00035  -0.00012   0.00214   0.00202   1.88053
   A11        1.87851   0.00035  -0.00012   0.00214   0.00202   1.88053
   A12        1.87853   0.00035  -0.00012   0.00212   0.00200   1.88053
    D1        3.14159   0.00000   0.00000   0.00000   0.00000   3.14159
    D2       -1.04721   0.00000  -0.00000   0.00001   0.00001  -1.04720
    D3        1.04721  -0.00000   0.00000  -0.00001  -0.00001   1.04720
    D4       -1.04721   0.00000  -0.00000   0.00001   0.00001  -1.04720
    D5        1.04718   0.00000  -0.00000   0.00002   0.00002   1.04720
    D6        3.14159  -0.00000   0.00000  -0.00000   0.00000   3.14159
    D7        1.04721  -0.00000   0.00000  -0.00001  -0.00001   1.04720
    D8        3.14159   0.00000   0.00000  -0.00000   0.00000   3.14159
    D9       -1.04718  -0.00000   0.00000  -0.00002  -0.00002  -1.04720
         Item               Value     Threshold  Converged?
 Maximum Force            0.003927     0.000450     NO 
 RMS     Force            0.000809     0.000300     NO 
 Maximum Displacement     0.009097     0.001800     NO 
 RMS     Displacement     0.004671     0.001200     NO 
 Predicted change in Energy=-2.897324D-05
 GradGradGradGradGradGradGradGradGradGradGradGradGradGradGradGradGradGrad

                          Input orientation:                          
 ---------------------------------------------------------------------
 Center     Atomic      Atomic             Coordinates (Angstroms)
 Number     Number       Type             X           Y           Z
 ---------------------------------------------------------------------
      1          6           0        0.013701    0.000015    0.000000
      2          6           0       -1.513701   -0.000015   -0.000000
      3          1           0        0.405388   -1.012617    0.000000
      4          1           0        0.405355    0.506342   -0.876972
      5          1           0        0.405355    0.506342    0.876972
      6          1           0       -1.905388    1.012617   -0.000000
      7          1           0       -1.905355   -0.506342   -0.876972
      8          1           0       -1.905355   -0.506342    0.876972
 ---------------------------------------------------------------------
                    Distance matrix (angstroms):
                    1          2          3          4          5
     1  C    0.000000
     2  C    1.527401   0.000000
     3  H    1.085745   2.169853   0.000000
     4  H    1.085745   2.169851   1.753943   0.000000
     5  H    1.085745   2.169851   1.753943   1.753944   0.000000
     6  H    2.169853   1.085745   3.072663   2.522881   2.522881
     7  H    2.169851   1.085745   2.522881   2.522878   3.072659
     8  H    2.169851   1.085745   2.522881   3.072659   2.522878
                    6          7          8
     6  H    0.000000
     7  H    1.753943   0.000000
     8  H    1.753943   1.753944   0.000000
 Stoichiometry    C2H6
 Framework group  C2H[SGH(C2H2),X(H4)]
 Deg. of freedom     6
 Full point group                 C2H     NOp   4
 Largest Abelian subgroup         C2H     NOp   4
 Largest concise Abelian subgroup C2H     NOp   4
                         Standard orientation:                         
 ---------------------------------------------------------------------
 Center     Atomic      Atomic             Coordinates (Angstroms)
 Number     Number       Type             X           Y           Z
 ---------------------------------------------------------------------
      1          6           0        0.000000    0.763701   -0.000000
      2          6           0       -0.000000   -0.763701   -0.000000
      3          1           0       -1.012639    1.155368   -0.000000
      4          1           0        0.506320    1.155365    0.876972
      5          1           0        0.506320    1.155365   -0.876972
      6          1           0        1.012639   -1.155368   -0.000000
      7          1           0       -0.506320   -1.155365    0.876972
      8          1           0       -0.506320   -1.155365   -0.876972
 ---------------------------------------------------------------------
 Rotational constants (GHZ):          81.5024741          20.0786186          20.0786143
 Standard basis: 6-31G(d) (6D, 7F)
 There are    15 symmetry adapted cartesian basis functions of AG  symmetry.
 There are     6 symmetry adapted cartesian basis functions of BG  symmetry.
 There are     6 symmetry adapted cartesian basis functions of AU  symmetry.
 There are    15 symmetry adapted cartesian basis functions of BU  symmetry.
 There are    15 symmetry adapted basis functions of AG  symmetry.
 There are     6 symmetry adapted basis functions of BG  symmetry.
 There are     6 symmetry adapted basis functions of AU  symmetry.
 There are    15 symmetry adapted basis functions of BU  symmetry.
    42 basis functions,    80 primitive gaussians,    42 cartesian basis functions
     9 alpha electrons        9 beta electrons
       nuclear repulsion energy        42.3833178297 Hartrees.
 NAtoms=    8 NActive=    8 NUniq=    3 SFac= 4.00D+00 NAtFMM=   60 NAOKFM=F Big=F
 Integral buffers will be    131072 words long.
 Raffenetti 2 integral format.
 Two-electron integral symmetry is turned on.
 One-electron integrals computed using PRISM.
 NBasis=    42 RedAO= T EigKep=  8.27D-03  NBF=    15     6     6    15
 NBsUse=    42 1.00D-06 EigRej= -1.00D+00 NBFU=    15     6     6    15
 Initial guess from the checkpoint file:  "HC_CT_CT_HC_multiplicity_1.chk"
 B after Tr=     0.000000    0.000000    0.000000
         Rot=    1.000000    0.000000    0.000000    0.000002 Ang=   0.00 deg.
 Initial guess orbital symmetries:
 Alpha Orbitals:
       Occupied  (AG) (BU) (AG) (BU) (AU) (BU) (AG) (BG) (AG)
       Virtual   (AG) (BU) (AU) (BU) (AG) (BG) (BU) (AG) (BU) (AU)
                 (AG) (BG) (BU) (BU) (AU) (AG) (BG) (AG) (BU) (AG)
                 (BU) (BU) (AU) (AG) (BG) (AG) (AU) (BU) (AG) (BG)
                 (BU) (AG) (BU)
 Beta  Orbitals:
       Occupied  (AG) (BU) (AG) (BU) (AU) (BU) (AG) (BG) (AG)
       Virtual   (AG) (BU) (AU) (BU) (AG) (BG) (BU) (AG) (BU) (AU)
                 (AG) (BG) (BU) (BU) (AU) (AG) (BG) (AG) (BU) (AG)
                 (BU) (BU) (AU) (AG) (BG) (AG) (AU) (BU) (AG) (BG)
                 (BU) (AG) (BU)
 Initial guess <Sx>= 0.0000 <Sy>= 0.0000 <Sz>= 0.0000 <S**2>=-0.0000 S=-0.0000
 Keep R1 and R2 ints in memory in symmetry-blocked form, NReq=1251605.
 Requested convergence on RMS density matrix=1.00D-08 within1000 cycles.
 Requested convergence on MAX density matrix=1.00D-06.
 Requested convergence on             energy=1.00D-06.
 No special actions if energy rises.
 SCF Done:  E(UHF) =  -79.2287536536     A.U. after    7 cycles
            NFock=  7  Conv=0.32D-08     -V/T= 2.0004
 <Sx>= 0.0000 <Sy>= 0.0000 <Sz>= 0.0000 <S**2>= 0.0000 S= 0.0000
 <L.S>= 0.000000000000E+00
 Annihilation of the first spin contaminant:
 S**2 before annihilation     0.0000,   after     0.0000
 Calling FoFJK, ICntrl=      2127 FMM=F ISym2X=1 I1Cent= 0 IOpClX= 1 NMat=1 NMatS=1 NMatT=0.
 ***** Axes restored to original set *****
 -------------------------------------------------------------------
 Center     Atomic                   Forces (Hartrees/Bohr)
 Number     Number              X              Y              Z
 -------------------------------------------------------------------
      1        6          -0.000191597    0.000000354    0.000000000
      2        6           0.000191597   -0.000000354    0.000000000
      3        1           0.000129133    0.000186655    0.000000000
      4        1           0.000129568   -0.000093254    0.000161764
      5        1           0.000129568   -0.000093254   -0.000161764
      6        1          -0.000129133   -0.000186655    0.000000000
      7        1          -0.000129568    0.000093254    0.000161764
      8        1          -0.000129568    0.000093254   -0.000161764
 -------------------------------------------------------------------
 Cartesian Forces:  Max     0.000191597 RMS     0.000126336

 GradGradGradGradGradGradGradGradGradGradGradGradGradGradGradGradGradGrad
 Berny optimization.
 Using GEDIIS/GDIIS optimizer.
 FormGI is forming the generalized inverse of G from B-inverse, IUseBI=4.
 Internal  Forces:  Max     0.000196673 RMS     0.000141025
 Search for a local minimum.
 Step number   4 out of a maximum of   38 on scan point     1 out of    37
 All quantities printed in internal units (Hartrees-Bohrs-Radians)
 Mixed Optimization -- En-DIIS/RFO-DIIS
 Swapping is turned off.
 Update second derivatives using D2CorX and points    1    2    3    4
 DE= -2.52D-05 DEPred=-2.90D-05 R= 8.70D-01
 TightC=F SS=  1.41D+00  RLast= 1.41D-02 DXNew= 8.4853D-01 4.2386D-02
 Trust test= 8.70D-01 RLast= 1.41D-02 DXMaxT set to 5.05D-01
 ITU=  1  1  1  0
     Eigenvalues ---    0.02122   0.05765   0.05765   0.05765   0.16000
     Eigenvalues ---    0.16000   0.16000   0.16000   0.16000   0.16829
     Eigenvalues ---    0.33588   0.42709   0.47689   0.47689   0.47689
     Eigenvalues ---    0.47690   0.476901000.000001000.000001000.00000
     Eigenvalues --- 1000.000001000.000001000.000001000.000001000.00000
     Eigenvalues --- 1000.000001000.000001000.00000
 En-DIIS/RFO-DIIS/Sim-DIIS IScMMF=       -3 using points:     4    3
 RFO step:  Lambda=-2.41442098D-06.
 DidBck=F Rises=F RFO-DIIS coefs:    0.86211    0.13789
 Iteration  1 RMS(Cart)=  0.00095538 RMS(Int)=  0.00000050
 Iteration  2 RMS(Cart)=  0.00000048 RMS(Int)=  0.00000013
 Iteration  1 RMS(Cart)=  0.00000000 RMS(Int)=  0.00000000
 ClnCor:  largest displacement from symmetrization is 7.84D-09 for atom     8.
 Variable       Old X    -DE/DX   Delta X   Delta X   Delta X     New X
                                 (Linear)    (Quad)   (Total)
    R1        2.88637   0.00020   0.00164  -0.00142   0.00022   2.88659
    R2        2.05176  -0.00013  -0.00019  -0.00003  -0.00022   2.05154
    R3        2.05176  -0.00013  -0.00019  -0.00003  -0.00022   2.05154
    R4        2.05176  -0.00013  -0.00019  -0.00003  -0.00022   2.05154
    R5        2.05176  -0.00013  -0.00019  -0.00003  -0.00022   2.05154
    R6        2.05176  -0.00013  -0.00019  -0.00003  -0.00022   2.05154
    R7        2.05176  -0.00013  -0.00019  -0.00003  -0.00022   2.05154
    A1        1.93985   0.00018   0.00026   0.00069   0.00095   1.94080
    A2        1.93985   0.00018   0.00026   0.00069   0.00095   1.94080
    A3        1.93985   0.00018   0.00026   0.00069   0.00095   1.94080
    A4        1.88053  -0.00019  -0.00028  -0.00073  -0.00101   1.87952
    A5        1.88053  -0.00019  -0.00028  -0.00073  -0.00101   1.87952
    A6        1.88053  -0.00019  -0.00028  -0.00073  -0.00101   1.87952
    A7        1.93985   0.00018   0.00026   0.00069   0.00095   1.94080
    A8        1.93985   0.00018   0.00026   0.00069   0.00095   1.94080
    A9        1.93985   0.00018   0.00026   0.00069   0.00095   1.94080
   A10        1.88053  -0.00019  -0.00028  -0.00073  -0.00101   1.87952
   A11        1.88053  -0.00019  -0.00028  -0.00073  -0.00101   1.87952
   A12        1.88053  -0.00019  -0.00028  -0.00073  -0.00101   1.87952
    D1        3.14159   0.00000   0.00000   0.00000   0.00000   3.14159
    D2       -1.04720  -0.00000  -0.00000   0.00000   0.00000  -1.04720
    D3        1.04720   0.00000   0.00000  -0.00000  -0.00000   1.04720
    D4       -1.04720  -0.00000  -0.00000   0.00000   0.00000  -1.04720
    D5        1.04720  -0.00000  -0.00000   0.00000   0.00000   1.04720
    D6        3.14159   0.00000   0.00000   0.00000   0.00000   3.14159
    D7        1.04720   0.00000   0.00000  -0.00000  -0.00000   1.04720
    D8       -3.14159  -0.00000  -0.00000   0.00000   0.00000  -3.14159
    D9       -1.04720   0.00000   0.00000  -0.00000  -0.00000  -1.04720
         Item               Value     Threshold  Converged?
 Maximum Force            0.000197     0.000450     YES
 RMS     Force            0.000144     0.000300     YES
 Maximum Displacement     0.001853     0.001800     NO 
 RMS     Displacement     0.000955     0.001200     YES
 Predicted change in Energy=-1.207222D-06
 GradGradGradGradGradGradGradGradGradGradGradGradGradGradGradGradGradGrad

                          Input orientation:                          
 ---------------------------------------------------------------------
 Center     Atomic      Atomic             Coordinates (Angstroms)
 Number     Number       Type             X           Y           Z
 ---------------------------------------------------------------------
      1          6           0        0.013760    0.000015    0.000000
      2          6           0       -1.513760   -0.000015   -0.000000
      3          1           0        0.406366   -1.012135   -0.000000
      4          1           0        0.406336    0.506103   -0.876555
      5          1           0        0.406336    0.506103    0.876555
      6          1           0       -1.906366    1.012135    0.000000
      7          1           0       -1.906336   -0.506103   -0.876555
      8          1           0       -1.906336   -0.506103    0.876555
 ---------------------------------------------------------------------
                    Distance matrix (angstroms):
                    1          2          3          4          5
     1  C    0.000000
     2  C    1.527519   0.000000
     3  H    1.085628   2.170546   0.000000
     4  H    1.085628   2.170546   1.753110   0.000000
     5  H    1.085628   2.170546   1.753110   1.753110   0.000000
     6  H    2.170546   1.085628   3.073500   2.524481   2.524481
     7  H    2.170546   1.085628   2.524481   2.524482   3.073500
     8  H    2.170546   1.085628   2.524481   3.073500   2.524482
                    6          7          8
     6  H    0.000000
     7  H    1.753110   0.000000
     8  H    1.753110   1.753110   0.000000
 Stoichiometry    C2H6
 Framework group  C2H[SGH(C2H2),X(H4)]
 Deg. of freedom     6
 Full point group                 C2H     NOp   4
 Largest Abelian subgroup         C2H     NOp   4
 Largest concise Abelian subgroup C2H     NOp   4
                         Standard orientation:                         
 ---------------------------------------------------------------------
 Center     Atomic      Atomic             Coordinates (Angstroms)
 Number     Number       Type             X           Y           Z
 ---------------------------------------------------------------------
      1          6           0        0.000000    0.763760    0.000000
      2          6           0       -0.000000   -0.763760    0.000000
      3          1           0       -1.012159    1.156346    0.000000
      4          1           0        0.506079    1.156346    0.876555
      5          1           0        0.506079    1.156346   -0.876555
      6          1           0        1.012159   -1.156346    0.000000
      7          1           0       -0.506079   -1.156346    0.876555
      8          1           0       -0.506079   -1.156346   -0.876555
 ---------------------------------------------------------------------
 Rotational constants (GHZ):          81.5800248          20.0683187          20.0683179
 Standard basis: 6-31G(d) (6D, 7F)
 There are    15 symmetry adapted cartesian basis functions of AG  symmetry.
 There are     6 symmetry adapted cartesian basis functions of BG  symmetry.
 There are     6 symmetry adapted cartesian basis functions of AU  symmetry.
 There are    15 symmetry adapted cartesian basis functions of BU  symmetry.
 There are    15 symmetry adapted basis functions of AG  symmetry.
 There are     6 symmetry adapted basis functions of BG  symmetry.
 There are     6 symmetry adapted basis functions of AU  symmetry.
 There are    15 symmetry adapted basis functions of BU  symmetry.
    42 basis functions,    80 primitive gaussians,    42 cartesian basis functions
     9 alpha electrons        9 beta electrons
       nuclear repulsion energy        42.3813472446 Hartrees.
 NAtoms=    8 NActive=    8 NUniq=    3 SFac= 4.00D+00 NAtFMM=   60 NAOKFM=F Big=F
 Integral buffers will be    131072 words long.
 Raffenetti 2 integral format.
 Two-electron integral symmetry is turned on.
 One-electron integrals computed using PRISM.
 NBasis=    42 RedAO= T EigKep=  8.28D-03  NBF=    15     6     6    15
 NBsUse=    42 1.00D-06 EigRej= -1.00D+00 NBFU=    15     6     6    15
 Initial guess from the checkpoint file:  "HC_CT_CT_HC_multiplicity_1.chk"
 B after Tr=    -0.000000   -0.000000   -0.000000
         Rot=    1.000000   -0.000000   -0.000000   -0.000000 Ang=  -0.00 deg.
 Initial guess orbital symmetries:
 Alpha Orbitals:
       Occupied  (AG) (BU) (AG) (BU) (AU) (BU) (AG) (BG) (AG)
       Virtual   (AG) (BU) (BU) (AU) (BG) (AG) (BU) (AG) (BU) (AU)
                 (BG) (AG) (BU) (BU) (AU) (AG) (BG) (AG) (BU) (AG)
                 (BU) (AU) (BU) (AG) (AG) (BG) (BU) (AU) (BG) (AG)
                 (BU) (AG) (BU)
 Beta  Orbitals:
       Occupied  (AG) (BU) (AG) (BU) (AU) (BU) (AG) (BG) (AG)
       Virtual   (AG) (BU) (BU) (AU) (BG) (AG) (BU) (AG) (BU) (AU)
                 (BG) (AG) (BU) (BU) (AU) (AG) (BG) (AG) (BU) (AG)
                 (BU) (AU) (BU) (AG) (AG) (BG) (BU) (AU) (BG) (AG)
                 (BU) (AG) (BU)
 Initial guess <Sx>= 0.0000 <Sy>= 0.0000 <Sz>= 0.0000 <S**2>=-0.0000 S=-0.0000
 Keep R1 and R2 ints in memory in symmetry-blocked form, NReq=1251605.
 Requested convergence on RMS density matrix=1.00D-08 within1000 cycles.
 Requested convergence on MAX density matrix=1.00D-06.
 Requested convergence on             energy=1.00D-06.
 No special actions if energy rises.
 SCF Done:  E(UHF) =  -79.2287549895     A.U. after    6 cycles
            NFock=  6  Conv=0.35D-08     -V/T= 2.0004
 <Sx>= 0.0000 <Sy>= 0.0000 <Sz>= 0.0000 <S**2>=-0.0000 S=-0.0000
 <L.S>= 0.000000000000E+00
 Annihilation of the first spin contaminant:
 S**2 before annihilation    -0.0000,   after     0.0000
 Calling FoFJK, ICntrl=      2127 FMM=F ISym2X=1 I1Cent= 0 IOpClX= 1 NMat=1 NMatS=1 NMatT=0.
 ***** Axes restored to original set *****
 -------------------------------------------------------------------
 Center     Atomic                   Forces (Hartrees/Bohr)
 Number     Number              X              Y              Z
 -------------------------------------------------------------------
      1        6          -0.000088809   -0.000000092    0.000000000
      2        6           0.000088809    0.000000092    0.000000000
      3        1           0.000009346    0.000031982    0.000000000
      4        1           0.000009317   -0.000015974    0.000027636
      5        1           0.000009317   -0.000015974   -0.000027636
      6        1          -0.000009346   -0.000031982   -0.000000000
      7        1          -0.000009317    0.000015974    0.000027636
      8        1          -0.000009317    0.000015974   -0.000027636
 -------------------------------------------------------------------
 Cartesian Forces:  Max     0.000088809 RMS     0.000030562

 GradGradGradGradGradGradGradGradGradGradGradGradGradGradGradGradGradGrad
 Berny optimization.
 Using GEDIIS/GDIIS optimizer.
 FormGI is forming the generalized inverse of G from B-inverse, IUseBI=4.
 Internal  Forces:  Max     0.000060828 RMS     0.000021339
 Search for a local minimum.
 Step number   5 out of a maximum of   38 on scan point     1 out of    37
 All quantities printed in internal units (Hartrees-Bohrs-Radians)
 Mixed Optimization -- En-DIIS/RFO-DIIS
 Swapping is turned off.
 Update second derivatives using D2CorX and points    1    2    3    4    5
 DE= -1.34D-06 DEPred=-1.21D-06 R= 1.11D+00
 TightC=F SS=  1.41D+00  RLast= 3.44D-03 DXNew= 8.4853D-01 1.0334D-02
 Trust test= 1.11D+00 RLast= 3.44D-03 DXMaxT set to 5.05D-01
 ITU=  1  1  1  1  0
     Eigenvalues ---    0.02118   0.05756   0.05756   0.05756   0.14664
     Eigenvalues ---    0.16000   0.16000   0.16000   0.16000   0.16000
     Eigenvalues ---    0.34685   0.41056   0.47689   0.47689   0.47689
     Eigenvalues ---    0.47690   0.476901000.000001000.000001000.00000
     Eigenvalues --- 1000.000001000.000001000.000001000.000001000.00000
     Eigenvalues --- 1000.000001000.000001000.00000
 En-DIIS/RFO-DIIS/Sim-DIIS IScMMF=       -3 using points:     5    4    3
 RFO step:  Lambda=-5.13175877D-08.
 DidBck=F Rises=F RFO-DIIS coefs:    1.20386   -0.17908   -0.02478
 Iteration  1 RMS(Cart)=  0.00009733 RMS(Int)=  0.00000006
 Iteration  2 RMS(Cart)=  0.00000002 RMS(Int)=  0.00000006
 Iteration  1 RMS(Cart)=  0.00000000 RMS(Int)=  0.00000000
 ClnCor:  largest displacement from symmetrization is 3.72D-09 for atom     5.
 Variable       Old X    -DE/DX   Delta X   Delta X   Delta X     New X
                                 (Linear)    (Quad)   (Total)
    R1        2.88659  -0.00006  -0.00025  -0.00002  -0.00027   2.88632
    R2        2.05154  -0.00003  -0.00001  -0.00004  -0.00006   2.05148
    R3        2.05154  -0.00003  -0.00001  -0.00004  -0.00006   2.05148
    R4        2.05154  -0.00003  -0.00001  -0.00004  -0.00006   2.05148
    R5        2.05154  -0.00003  -0.00001  -0.00004  -0.00006   2.05148
    R6        2.05154  -0.00003  -0.00001  -0.00004  -0.00006   2.05148
    R7        2.05154  -0.00003  -0.00001  -0.00004  -0.00006   2.05148
    A1        1.94080   0.00002   0.00015  -0.00000   0.00014   1.94094
    A2        1.94080   0.00002   0.00015  -0.00000   0.00014   1.94094
    A3        1.94080   0.00002   0.00015  -0.00000   0.00014   1.94094
    A4        1.87952  -0.00002  -0.00016   0.00000  -0.00015   1.87937
    A5        1.87952  -0.00002  -0.00016   0.00000  -0.00015   1.87937
    A6        1.87952  -0.00002  -0.00016   0.00001  -0.00015   1.87937
    A7        1.94080   0.00002   0.00015  -0.00000   0.00014   1.94094
    A8        1.94080   0.00002   0.00015  -0.00000   0.00014   1.94094
    A9        1.94080   0.00002   0.00015  -0.00000   0.00014   1.94094
   A10        1.87952  -0.00002  -0.00016   0.00000  -0.00015   1.87937
   A11        1.87952  -0.00002  -0.00016   0.00000  -0.00015   1.87937
   A12        1.87952  -0.00002  -0.00016   0.00001  -0.00015   1.87937
    D1        3.14159   0.00000  -0.00000   0.00000   0.00000   3.14159
    D2       -1.04720   0.00000   0.00000  -0.00000   0.00000  -1.04720
    D3        1.04720  -0.00000  -0.00000   0.00000  -0.00000   1.04720
    D4       -1.04720   0.00000   0.00000  -0.00000   0.00000  -1.04720
    D5        1.04720   0.00000   0.00000  -0.00000   0.00000   1.04720
    D6        3.14159  -0.00000  -0.00000  -0.00000   0.00000   3.14159
    D7        1.04720  -0.00000  -0.00000   0.00000  -0.00000   1.04720
    D8        3.14159  -0.00000  -0.00000  -0.00000   0.00000   3.14159
    D9       -1.04720  -0.00000  -0.00000   0.00000  -0.00000  -1.04720
         Item               Value     Threshold  Converged?
 Maximum Force            0.000061     0.000450     YES
 RMS     Force            0.000022     0.000300     YES
 Maximum Displacement     0.000157     0.001800     YES
 RMS     Displacement     0.000097     0.001200     YES
 Predicted change in Energy=-2.976663D-08
 Optimization completed.
    -- Stationary point found.
                           ----------------------------
                           !   Optimized Parameters   !
                           ! (Angstroms and Degrees)  !
 --------------------------                            --------------------------
 ! Name  Definition              Value          Derivative Info.                !
 --------------------------------------------------------------------------------
 ! R1    R(1,2)                  1.5275         -DE/DX =   -0.0001              !
 ! R2    R(1,3)                  1.0856         -DE/DX =    0.0                 !
 ! R3    R(1,4)                  1.0856         -DE/DX =    0.0                 !
 ! R4    R(1,5)                  1.0856         -DE/DX =    0.0                 !
 ! R5    R(2,6)                  1.0856         -DE/DX =    0.0                 !
 ! R6    R(2,7)                  1.0856         -DE/DX =    0.0                 !
 ! R7    R(2,8)                  1.0856         -DE/DX =    0.0                 !
 ! A1    A(2,1,3)              111.1998         -DE/DX =    0.0                 !
 ! A2    A(2,1,4)              111.1998         -DE/DX =    0.0                 !
 ! A3    A(2,1,5)              111.1998         -DE/DX =    0.0                 !
 ! A4    A(3,1,4)              107.6887         -DE/DX =    0.0                 !
 ! A5    A(3,1,5)              107.6887         -DE/DX =    0.0                 !
 ! A6    A(4,1,5)              107.6887         -DE/DX =    0.0                 !
 ! A7    A(1,2,6)              111.1998         -DE/DX =    0.0                 !
 ! A8    A(1,2,7)              111.1998         -DE/DX =    0.0                 !
 ! A9    A(1,2,8)              111.1998         -DE/DX =    0.0                 !
 ! A10   A(6,2,7)              107.6887         -DE/DX =    0.0                 !
 ! A11   A(6,2,8)              107.6887         -DE/DX =    0.0                 !
 ! A12   A(7,2,8)              107.6887         -DE/DX =    0.0                 !
 ! D1    D(3,1,2,6)            180.0            -DE/DX =    0.0                 !
 ! D2    D(3,1,2,7)            -60.0            -DE/DX =    0.0                 !
 ! D3    D(3,1,2,8)             60.0            -DE/DX =    0.0                 !
 ! D4    D(4,1,2,6)            -60.0            -DE/DX =    0.0                 !
 ! D5    D(4,1,2,7)             60.0            -DE/DX =    0.0                 !
 ! D6    D(4,1,2,8)            180.0            -DE/DX =    0.0                 !
 ! D7    D(5,1,2,6)             60.0            -DE/DX =    0.0                 !
 ! D8    D(5,1,2,7)            180.0            -DE/DX =    0.0                 !
 ! D9    D(5,1,2,8)            -60.0            -DE/DX =    0.0                 !
 --------------------------------------------------------------------------------
 Iteration  1 RMS(Cart)=  0.01703222 RMS(Int)=  0.02533636
 Iteration  2 RMS(Cart)=  0.00041445 RMS(Int)=  0.02533264
 Iteration  3 RMS(Cart)=  0.00001306 RMS(Int)=  0.02533263
 Iteration  4 RMS(Cart)=  0.00000026 RMS(Int)=  0.02533263
 Iteration  1 RMS(Cart)=  0.01004649 RMS(Int)=  0.01493771
 Iteration  2 RMS(Cart)=  0.00592546 RMS(Int)=  0.01664474
 Iteration  3 RMS(Cart)=  0.00349292 RMS(Int)=  0.01895877
 Iteration  4 RMS(Cart)=  0.00205819 RMS(Int)=  0.02062928
 Iteration  5 RMS(Cart)=  0.00121249 RMS(Int)=  0.02169405
 Iteration  6 RMS(Cart)=  0.00071417 RMS(Int)=  0.02234491
 Iteration  7 RMS(Cart)=  0.00042062 RMS(Int)=  0.02273569
 Iteration  8 RMS(Cart)=  0.00024771 RMS(Int)=  0.02296828
 Iteration  9 RMS(Cart)=  0.00014588 RMS(Int)=  0.02310606
 Iteration 10 RMS(Cart)=  0.00008591 RMS(Int)=  0.02318749
 Iteration 11 RMS(Cart)=  0.00005059 RMS(Int)=  0.02323553
 Iteration 12 RMS(Cart)=  0.00002979 RMS(Int)=  0.02326385
[...]
           D5         -51.53017 -42.71252 -33.25862 -22.95706 -11.78972
           D6          68.44847  77.24727  86.70744  97.04537 108.24777
           D7         -50.78631 -41.39631 -31.66307 -21.47595 -10.85724
           D8          68.44847  77.24727  86.70744  97.04537 108.24777
           D9        -171.57289-162.79295-153.32650-142.95220-131.71474
                          31        32        33        34        35
     Eigenvalues --    -0.22400  -0.22434  -0.22526  -0.22647  -0.22764
           R1           1.54113   1.54002   1.53711   1.53351   1.53027
           R2           1.08465   1.08468   1.08485   1.08509   1.08535
           R3           1.08465   1.08443   1.08443   1.08462   1.08492
           R4           1.08458   1.08501   1.08545   1.08578   1.08590
           R5           1.08465   1.08468   1.08485   1.08509   1.08535
           R6           1.08465   1.08443   1.08443   1.08462   1.08492
           R7           1.08458   1.08501   1.08545   1.08578   1.08590
           A1         111.62650 111.59450 111.52442 111.42177 111.31130
           A2         111.66913 111.89531 111.99919 111.96211 111.78719
           A3         111.67304 111.37027 111.06419 110.85816 110.82044
           A4         107.19547 107.79484 108.27003 108.49259 108.43382
           A5         107.18573 106.67352 106.38981 106.40932 106.69925
           A6         107.22054 107.24336 107.33110 107.45362 107.57462
           A7         111.62650 111.59450 111.52442 111.42177 111.31130
           A8         111.66913 111.89531 111.99919 111.96211 111.78719
           A9         111.67304 111.37027 111.06419 110.85816 110.82044
           A10        107.19547 107.79484 108.27003 108.49259 108.43382
           A11        107.18573 106.67352 106.38981 106.40932 106.69925
           A12        107.22054 107.24336 107.33110 107.45362 107.57462
           D1         120.00033 130.00034 140.00030 150.00024 160.00032
           D2        -120.01777-109.11506 -98.47917 -88.29167 -78.56938
           D3           0.02818  10.90654  21.51400  31.69080  41.42352
           D4        -120.01777-109.11506 -98.47917 -88.29167 -78.56938
           D5          -0.03588  11.76954  23.04137  33.41642  42.86092
           D6         120.01007 131.79114 143.03454 153.39889 162.85382
           D7           0.02818  10.90654  21.51400  31.69080  41.42352
           D8         120.01007 131.79114 143.03454 153.39889 162.85382
           D9        -119.94398-108.18727 -96.97229 -86.61865 -77.15328
                          36        37
     Eigenvalues --    -0.22846  -0.22875
           R1           1.52809   1.52733
           R2           1.08552   1.08558
           R3           1.08528   1.08562
           R4           1.08582   1.08558
           R5           1.08552   1.08558
           R6           1.08528   1.08562
           R7           1.08582   1.08558
           A1         111.22583 111.19051
           A2         111.51418 111.21109
           A3         110.95529 111.21664
           A4         108.13677 107.68033
           A5         107.16207 107.67701
           A6         107.65940 107.68873
           A7         111.22583 111.19051
           A8         111.51418 111.21109
           A9         110.95529 111.21664
           A10        108.13677 107.68033
           A11        107.16207 107.67701
           A12        107.65940 107.68873
           D1         170.00027-179.99976
           D2         -69.19905 -60.00900
           D3          50.80995  60.00995
           D4         -69.19905 -60.00900
           D5          51.60163  59.98175
           D6         171.61062-179.99929
           D7          50.80995  60.00995
           D8         171.61062-179.99929
           D9         -68.38038 -59.98033
 GradGradGradGradGradGradGradGradGradGradGradGradGradGradGradGradGradGrad

                          Input orientation:                          
 ---------------------------------------------------------------------
 Center     Atomic      Atomic             Coordinates (Angstroms)
 Number     Number       Type             X           Y           Z
 ---------------------------------------------------------------------
      1          6           0        0.013665    0.000721   -0.000015
      2          6           0       -1.513665   -0.000721   -0.000015
      3          1           0        0.405116    1.013271   -0.000012
      4          1           0        0.406923   -0.504804    0.876544
      5          1           0        0.407008   -0.504757   -0.876517
      6          1           0       -1.905116   -1.013271   -0.000012
      7          1           0       -1.906923    0.504804    0.876544
      8          1           0       -1.907008    0.504757   -0.876517
 ---------------------------------------------------------------------
                    Distance matrix (angstroms):
                    1          2          3          4          5
     1  C    0.000000
     2  C    1.527330   0.000000
     3  H    1.085584   2.170230   0.000000
     4  H    1.085616   2.170510   1.752971   0.000000
     5  H    1.085580   2.170552   1.752904   1.753061   0.000000
     6  H    2.170230   1.085584   3.073116   2.524364   2.524434
     7  H    2.170510   1.085616   2.524364   2.524519   3.073551
     8  H    2.170552   1.085580   2.524434   3.073551   2.524637
                    6          7          8
     6  H    0.000000
     7  H    1.752971   0.000000
     8  H    1.752904   1.753061   0.000000
 Stoichiometry    C2H6
 Framework group  C2[X(C2H6)]
 Deg. of freedom    10
 Full point group                 C2      NOp   2
 Largest Abelian subgroup         C2      NOp   2
 Largest concise Abelian subgroup C2      NOp   2
                         Standard orientation:                         
 ---------------------------------------------------------------------
 Center     Atomic      Atomic             Coordinates (Angstroms)
 Number     Number       Type             X           Y           Z
 ---------------------------------------------------------------------
      1          6           0        0.000000    0.763665   -0.000006
      2          6           0       -0.000000   -0.763665   -0.000006
      3          1           0       -1.012181    1.156071   -0.000004
      4          1           0        0.505895    1.156447    0.876552
      5          1           0        0.505848    1.156531   -0.876509
      6          1           0        1.012181   -1.156071   -0.000004
      7          1           0       -0.505895   -1.156447    0.876552
      8          1           0       -0.505848   -1.156531   -0.876509
 ---------------------------------------------------------------------
 Rotational constants (GHZ):          81.5922017          20.0716361          20.0711712

 **********************************************************************

            Population analysis using the SCF Density.

 **********************************************************************

 Orbital symmetries:
 Alpha Orbitals:
       Occupied  (A) (B) (A) (B) (A) (B) (A) (B) (A)
       Virtual   (A) (B) (A) (B) (A) (B) (B) (A) (A) (B) (A) (B)
                 (B) (B) (A) (A) (B) (A) (B) (A) (B) (B) (A) (A)
                 (B) (A) (A) (B) (A) (B) (B) (A) (B)
 Beta  Orbitals:
       Occupied  (A) (B) (A) (B) (A) (B) (A) (B) (A)
       Virtual   (A) (B) (A) (B) (A) (B) (B) (A) (A) (B) (A) (B)
                 (B) (B) (A) (A) (B) (A) (B) (A) (B) (B) (A) (A)
                 (B) (A) (A) (B) (A) (B) (B) (A) (B)
 The electronic state is 1-A.
 Alpha  occ. eigenvalues --  -11.21018 -11.20959  -1.01876  -0.84359  -0.59790
 Alpha  occ. eigenvalues --   -0.59789  -0.50923  -0.48796  -0.48792
 Alpha virt. eigenvalues --    0.24297   0.30273   0.31802   0.31805   0.33905
 Alpha virt. eigenvalues --    0.33909   0.41308   0.70717   0.73876   0.73879
 Alpha virt. eigenvalues --    0.84682   0.84701   0.94353   1.15948   1.15949
 Alpha virt. eigenvalues --    1.20778   1.20781   1.21171   1.26398   1.27846
 Alpha virt. eigenvalues --    1.68911   1.80307   1.80325   2.25664   2.29361
 Alpha virt. eigenvalues --    2.29396   2.62384   2.62408   2.68031   2.68057
 Alpha virt. eigenvalues --    2.94038   4.58095   4.79782
  Beta  occ. eigenvalues --  -11.21018 -11.20959  -1.01876  -0.84359  -0.59790
  Beta  occ. eigenvalues --   -0.59789  -0.50923  -0.48796  -0.48792
  Beta virt. eigenvalues --    0.24297   0.30273   0.31802   0.31805   0.33905
  Beta virt. eigenvalues --    0.33909   0.41308   0.70717   0.73876   0.73879
  Beta virt. eigenvalues --    0.84682   0.84701   0.94353   1.15948   1.15949
  Beta virt. eigenvalues --    1.20778   1.20781   1.21171   1.26398   1.27846
  Beta virt. eigenvalues --    1.68911   1.80307   1.80325   2.25664   2.29361
  Beta virt. eigenvalues --    2.29396   2.62384   2.62408   2.68031   2.68057
  Beta virt. eigenvalues --    2.94038   4.58095   4.79782
          Condensed to atoms (all electrons):
               1          2          3          4          5          6
     1  C    5.074388   0.328587   0.395145   0.395147   0.395147  -0.037637
     2  C    0.328587   5.074388  -0.037637  -0.037599  -0.037592   0.395145
     3  H    0.395145  -0.037637   0.544990  -0.029619  -0.029626   0.003995
     4  H    0.395147  -0.037599  -0.029619   0.544919  -0.029608  -0.002882
     5  H    0.395147  -0.037592  -0.029626  -0.029608   0.544906  -0.002881
     6  H   -0.037637   0.395145   0.003995  -0.002882  -0.002881   0.544990
     7  H   -0.037599   0.395147  -0.002882  -0.002878   0.003989  -0.029619
     8  H   -0.037592   0.395147  -0.002881   0.003989  -0.002877  -0.029626
               7          8
     1  C   -0.037599  -0.037592
     2  C    0.395147   0.395147
     3  H   -0.002882  -0.002881
     4  H   -0.002878   0.003989
     5  H    0.003989  -0.002877
     6  H   -0.029619  -0.029626
     7  H    0.544919  -0.029608
     8  H   -0.029608   0.544906
          Atomic-Atomic Spin Densities.
               1          2          3          4          5          6
     1  C    0.000000   0.000000   0.000000   0.000000   0.000000  -0.000000
     2  C    0.000000   0.000000  -0.000000  -0.000000  -0.000000   0.000000
     3  H    0.000000  -0.000000   0.000000  -0.000000  -0.000000   0.000000
     4  H    0.000000  -0.000000  -0.000000   0.000000  -0.000000  -0.000000
     5  H    0.000000  -0.000000  -0.000000  -0.000000   0.000000  -0.000000
     6  H   -0.000000   0.000000   0.000000  -0.000000  -0.000000   0.000000
     7  H   -0.000000   0.000000  -0.000000  -0.000000   0.000000  -0.000000
     8  H   -0.000000   0.000000  -0.000000   0.000000  -0.000000  -0.000000
               7          8
     1  C   -0.000000  -0.000000
     2  C    0.000000   0.000000
     3  H   -0.000000  -0.000000
     4  H   -0.000000   0.000000
     5  H    0.000000  -0.000000
     6  H   -0.000000  -0.000000
     7  H    0.000000  -0.000000
     8  H   -0.000000   0.000000
 Mulliken charges and spin densities:
               1          2
     1  C   -0.475587   0.000000
     2  C   -0.475587   0.000000
     3  H    0.158514   0.000000
     4  H    0.158531   0.000000
     5  H    0.158541   0.000000
     6  H    0.158514   0.000000
     7  H    0.158531   0.000000
     8  H    0.158541   0.000000
 Sum of Mulliken charges =   0.00000   0.00000
 Mulliken charges and spin densities with hydrogens summed into heavy atoms:
               1          2
     1  C    0.000000   0.000000
     2  C    0.000000   0.000000
 Electronic spatial extent (au):  <R**2>=            109.3189
 Charge=              0.0000 electrons
 Dipole moment (field-independent basis, Debye):
    X=              0.0000    Y=             -0.0000    Z=             -0.0001  Tot=              0.0001
 Quadrupole moment (field-independent basis, Debye-Ang):
   XX=            -14.9155   YY=            -15.5385   ZZ=            -14.9144
   XY=              0.0008   XZ=             -0.0000   YZ=              0.0000
 Traceless Quadrupole moment (field-independent basis, Debye-Ang):
   XX=              0.2073   YY=             -0.4157   ZZ=              0.2084
   XY=              0.0008   XZ=             -0.0000   YZ=              0.0000
 Octapole moment (field-independent basis, Debye-Ang**2):
  XXX=              0.0000  YYY=             -0.0000  ZZZ=             -0.0001  XYY=              0.0000
  XXY=             -0.0000  XXZ=             -0.0000  XZZ=             -0.0000  YZZ=              0.0000
  YYZ=             -0.0005  XYZ=              0.0001
 Hexadecapole moment (field-independent basis, Debye-Ang**3):
 XXXX=            -28.6030 YYYY=            -93.0358 ZZZZ=            -28.6038 XXXY=             -1.2136
 XXXZ=             -0.0000 YYYX=              0.0039 YYYZ=              0.0000 ZZZX=              0.0000
 ZZZY=              0.0000 XXYY=            -19.2995 XXZZ=             -9.5350 YYZZ=            -19.2963
 XXYZ=              0.0000 YYXZ=             -0.0000 ZZXY=              1.2153
 N-N= 4.238408113481D+01 E-N=-2.684997893076D+02  KE= 7.920015159824D+01
 Symmetry A    KE= 4.082255626649D+01
 Symmetry B    KE= 3.837759533175D+01
 Symmetry A    SP= 2.133573856857D-15
 Symmetry B    SP= 1.744781464849D-15
                          Isotropic Fermi Contact Couplings
        Atom                 a.u.       MegaHertz       Gauss      10(-4) cm-1
     1  C(13)              0.00000       0.00000       0.00000       0.00000
     2  C(13)              0.00000       0.00000       0.00000       0.00000
     3  H(1)               0.00000       0.00000       0.00000       0.00000
     4  H(1)               0.00000       0.00000       0.00000       0.00000
     5  H(1)               0.00000       0.00000       0.00000       0.00000
     6  H(1)               0.00000       0.00000       0.00000       0.00000
     7  H(1)               0.00000       0.00000       0.00000       0.00000
     8  H(1)               0.00000       0.00000       0.00000       0.00000
 --------------------------------------------------------
       Center         ----  Spin Dipole Couplings  ----
                      3XX-RR        3YY-RR        3ZZ-RR
 --------------------------------------------------------
     1   Atom        0.000000      0.000000      0.000000
     2   Atom        0.000000      0.000000      0.000000
     3   Atom        0.000000      0.000000      0.000000
     4   Atom        0.000000      0.000000      0.000000
     5   Atom        0.000000      0.000000      0.000000
     6   Atom        0.000000      0.000000      0.000000
     7   Atom        0.000000      0.000000      0.000000
     8   Atom        0.000000      0.000000      0.000000
 --------------------------------------------------------
                        XY            XZ            YZ
 --------------------------------------------------------
     1   Atom        0.000000      0.000000      0.000000
     2   Atom        0.000000      0.000000      0.000000
     3   Atom        0.000000      0.000000      0.000000
     4   Atom        0.000000      0.000000      0.000000
     5   Atom        0.000000      0.000000      0.000000
     6   Atom        0.000000      0.000000      0.000000
     7   Atom        0.000000      0.000000      0.000000
     8   Atom        0.000000      0.000000      0.000000
 --------------------------------------------------------


 ---------------------------------------------------------------------------------
              Anisotropic Spin Dipole Couplings in Principal Axis System
 ---------------------------------------------------------------------------------

       Atom             a.u.   MegaHertz   Gauss  10(-4) cm-1        Axes

              Baa     0.0000     0.000     0.000     0.000  1.0000  0.0000  0.0000
     1 C(13)  Bbb     0.0000     0.000     0.000     0.000 -0.0000  1.0000  0.0000
              Bcc     0.0000     0.000     0.000     0.000  0.0000  0.0000  1.0000
 
              Baa     0.0000     0.000     0.000     0.000  1.0000  0.0000  0.0000
     2 C(13)  Bbb     0.0000     0.000     0.000     0.000 -0.0000  1.0000  0.0000
              Bcc     0.0000     0.000     0.000     0.000  0.0000  0.0000  1.0000
 
              Baa     0.0000     0.000     0.000     0.000  1.0000  0.0000  0.0000
     3 H(1)   Bbb     0.0000     0.000     0.000     0.000 -0.0000  1.0000  0.0000
              Bcc     0.0000     0.000     0.000     0.000  0.0000  0.0000  1.0000
 
              Baa     0.0000     0.000     0.000     0.000  1.0000  0.0000  0.0000
     4 H(1)   Bbb     0.0000     0.000     0.000     0.000 -0.0000  1.0000  0.0000
              Bcc     0.0000     0.000     0.000     0.000  0.0000  0.0000  1.0000
 
              Baa     0.0000     0.000     0.000     0.000  1.0000  0.0000  0.0000
     5 H(1)   Bbb     0.0000     0.000     0.000     0.000 -0.0000  1.0000  0.0000
              Bcc     0.0000     0.000     0.000     0.000  0.0000  0.0000  1.0000
 
              Baa     0.0000     0.000     0.000     0.000  1.0000  0.0000  0.0000
     6 H(1)   Bbb     0.0000     0.000     0.000     0.000 -0.0000  1.0000  0.0000
              Bcc     0.0000     0.000     0.000     0.000  0.0000  0.0000  1.0000
 
              Baa     0.0000     0.000     0.000     0.000  1.0000  0.0000  0.0000
     7 H(1)   Bbb     0.0000     0.000     0.000     0.000 -0.0000  1.0000  0.0000
              Bcc     0.0000     0.000     0.000     0.000  0.0000  0.0000  1.0000
 
              Baa     0.0000     0.000     0.000     0.000  1.0000  0.0000  0.0000
     8 H(1)   Bbb     0.0000     0.000     0.000     0.000 -0.0000  1.0000  0.0000
              Bcc     0.0000     0.000     0.000     0.000  0.0000  0.0000  1.0000
 

 ---------------------------------------------------------------------------------

 1\1\GINC-MEM5\Scan\UHF\6-31G(d)\C2H6\HF6839\20-Jan-2023\0\\# opt=modre
 dundant UHF/6-31G* SCF=(MaxCycle=1000) Geom=PrintInputOrient\\Dihedral
  Scan at UHF/6-31G*\\0,1\C,0.0136648046,0.0007206609,-0.0000145872\C,-
 1.5136648047,-0.0007206636,-0.0000145872\H,0.4051156738,1.0132714105,-
 0.0000124724\H,0.4069234515,-0.5048038482,0.8765442689\H,0.4070083114,
 -0.5047568115,-0.8765172183\H,-1.905115674,-1.0132714132,-0.0000124724
 \H,-1.9069234517,0.5048038455,0.8765442689\H,-1.9070083116,0.504756808
 7,-0.8765172183\\Version=ES64L-G16RevB.01\State=1-A\HF=-79.228755,-79.
 2284585,-79.2276351,-79.2264708,-79.2252587,-79.2243392,-79.2239963,-7
 9.2243396,-79.2252571,-79.2264671,-79.2276316,-79.2284578,-79.228755,-
 79.2284578,-79.2276318,-79.2264682,-79.2252588,-79.2243405,-79.2239967
 ,-79.2243405,-79.2252588,-79.2264682,-79.2276317,-79.2284578,-79.22875
 5,-79.2284578,-79.2276316,-79.2264671,-79.2252571,-79.2243397,-79.2239
 966,-79.22434,-79.2252591,-79.2264709,-79.2276351,-79.2284591,-79.2287
 55\S2=0.,0.,0.,0.,0.,0.,0.,0.,0.,0.,0.,0.,0.,0.,0.,0.,0.,0.,0.,0.,0.,0
 .,0.,0.,0.,0.,0.,0.,0.,0.,0.,0.,0.,0.,0.,0.,0.\S2-1=0.,0.,0.,0.,0.,0.,
 0.,0.,0.,0.,0.,0.,0.,0.,0.,0.,0.,0.,0.,0.,0.,0.,0.,0.,0.,0.,0.,0.,0.,0
 .,0.,0.,0.,0.,0.,0.,0.\S2A=0.,0.,0.,0.,0.,0.,0.,0.,0.,0.,0.,0.,0.,0.,0
 .,0.,0.,0.,0.,0.,0.,0.,0.,0.,0.,0.,0.,0.,0.,0.,0.,0.,0.,0.,0.,0.,0.\RM
 SD=3.538e-09,4.942e-09,3.467e-09,5.227e-09,9.133e-09,1.055e-09,1.078e-
 09,9.989e-09,8.502e-09,6.349e-09,4.444e-09,9.771e-09,7.440e-09,3.599e-
 09,4.135e-09,4.490e-09,4.360e-09,3.088e-09,3.982e-09,5.778e-09,6.329e-
 09,5.980e-09,1.753e-09,3.827e-09,3.976e-09,4.362e-09,5.659e-09,7.115e-
 09,8.705e-09,9.837e-09,1.031e-09,9.232e-09,7.301e-09,4.904e-09,2.696e-
 09,1.723e-09,2.558e-09\PG=C02 [X(C2H6)]\\@


 THE WISE MAN HAS THE POWER TO REASON AWAY
 WHAT A FOOL BELIEVES.
                     - DOOBIE BROTHERS
 Job cpu time:       0 days  0 hours 24 minutes 25.2 seconds.
 Elapsed time:       0 days  0 hours  9 minutes 41.8 seconds.
 File lengths (MBytes):  RWF=      9 Int=      0 D2E=      0 Chk=      3 Scr=      1
 Normal termination of Gaussian 16 at Fri Jan 20 15:29:46 2023.
