GOMC Serial Version 1.9
Started at: Fri Dec  9 11:19:05 2016
On hostname: potoff39.eng.wayne.edu

Total number of CPUs: 4
Total number of CPUs available: 4
Model name: Intel(R) Core(TM) i5-2500K CPU @ 3.30GHz

System name: Linux
Release: 2.6.32-642.4.2.el6.x86_64
Version: #1 SMP Tue Aug 23 19:58:13 UTC 2016
Kernel Architecture: x86_64
Total Ram: 7856.3MB
Used Ram: 5545.2MB
Working in the current directory /home3/soroush/Desktop/validation/GOMC_Serial-development_1.90/GOMC_Examples-master/NVT/DME

------------------------------------------------------
This code was compiled to support the canonical (NVT) ensemble.
------------------------------------------------------

REMINDER: EXOTIC force field has been selected!
Temperature of system has been set to 290.0 K 
Ewald Summation method will be used to calculate electrostatic interactions.
Ewald Tolerance is set to: 0.0
Warning: Unknown input HistogramFreq!
Warning: 1-4 electro static scaling has been set to zero!
Warning: By default, Fourier terms of ewald method will be cached!
Reading from Exotic Parameter File file: ./../../common/Par_DME_Exotic.inp

Finished reading Exotic Parameter File file: ./../../common/Par_DME_Exotic.inp

Reading from system PDB coordinate file file: ./STEP3_START_DME_BOX_0.pdb

Finished reading system PDB coordinate file file: ./STEP3_START_DME_BOX_0.pdb

Random number seed: 3778634435

Molecules in PSF:

Molecule Kind: DME
Idx	name	type	charge	mass
0	C1	CT3	0.3	15.0
1	O1	OT	-0.5	16.0
2	C2	CT3	0.3	15.0

Bonds:
[0 1] [1 2] 

Angles:
[0 1 2] 

Dihedrals:

REMINDER! 1-3 and 1-4 Interaction is OFF

box: 0, RecipVectors: 3381, kmax: 12

########################## INITIAL SIMULATION ENERGY ##########################
ETITLE_BOX_0    TOTAL           INTRA(B)        INTRA(N)        INTER(LJ)       LRC             TOTAL_ELECT     REAL            RECIP           SELF            CORR            

ENERGY_BOX_0    93623671603.222837416.8079      0.0000          93623735633.0916-196353.3735    94906.6969      114254.0605     386841.8024     -12048205.6835  11642016.5174   

###############################################################################

############################# STARTING SIMULATION #############################
MTITLE_BOX_0    DISTRY          DISACCEPT       DISACCEPT%      DISMAX          ROTATE          ROTACCEPT       ROTACCEPT%      ROTMAX          INTRASWAP       INTACCEPT       INTACCEPT%      STEP            

ETITLE_BOX_0    TOTAL           INTRA(B)        INTRA(N)        INTER(LJ)       LRC             TOTAL_ELECT     REAL            RECIP           SELF            CORR            
STITLE_BOX_0    PRESSURE        TOTALMOL        TOT_DENSITY     

Printed combined psf to file DME_290_00_K.psf
MOVE_BOX_0      50072           24126           48.1826         0.0745          30058           14862           49.4444         0.1913          19870           584             2.9391          100000          

ENERGY_BOX_0    5121303.5135    105058.8731     0.0000          5331546.8733    -196353.3735    -118948.8594    -91193.2866     349587.4015     -12048205.6835  11670862.7092   

STAT_BOX_0      106247.8830     1000            1195.2977       

Steps/sec. : 1521.9459
MOVE_BOX_0      100281          49345           49.2067         0.0987          60005           29874           49.7859         0.1995          39714           585             1.4730          200000          

ENERGY_BOX_0    1672214.1633    105138.0461     0.0000          2090746.6363    -196353.3735    -327317.1456    -241800.4019    291786.7276     -12048205.6835  11670902.2122   

STAT_BOX_0      69077.8350      1000            1195.2977       

Steps/sec. : 1531.7002
MOVE_BOX_0      150194          74327           49.4873         0.0932          90188           45030           49.9290         0.2281          59618           585             0.9812          300000          

ENERGY_BOX_0    773990.5579     105138.0461     0.0000          1366450.6732    -196353.3735    -501244.7879    -370571.6403    246630.3237     -12048205.6835  11670902.2122   

STAT_BOX_0      60603.9269      1000            1195.2977       

Steps/sec. : 1529.6295
MOVE_BOX_0      200462          99500           49.6353         0.0966          119953          59931           49.9621         0.2011          79585           585             0.7351          400000          

ENERGY_BOX_0    345195.0358     105138.0461     0.0000          1033466.5144    -196353.3735    -597056.1512    -439841.0276    220088.3478     -12048205.6835  11670902.2122   

STAT_BOX_0      56768.8776      1000            1195.2977       

Steps/sec. : 1556.8814
MOVE_BOX_0      250561          124595          49.7264         0.0991          149782          74882           49.9940         0.2151          99657           585             0.5870          500000          

ENERGY_BOX_0    54270.4631      105138.0461     0.0000          831364.8838     -196353.3735    -685879.0933    -497961.5318    189385.9098     -12048205.6835  11670902.2122   

STAT_BOX_0      54491.1555      1000            1195.2977       

Steps/sec. : 1554.2411
MOVE_BOX_0      300570          149652          49.7894         0.1063          179862          89947           50.0089         0.2024          119568          585             0.4893          600000          

ENERGY_BOX_0    -178819.1093    105138.0461     0.0000          678228.0602     -196353.3735    -765831.8421    -552892.9696    164364.5988     -12048205.6835  11670902.2122   

STAT_BOX_0      52840.6383      1000            1195.2977       

Steps/sec. : 1565.2238
MOVE_BOX_0      350663          174732          49.8290         0.1031          209852          105005          50.0376         0.2570          139485          585             0.4194          700000          

ENERGY_BOX_0    -349709.5486    105138.0461     0.0000          538535.6907     -196353.3735    -797029.9120    -573727.2734    154000.8328     -12048205.6835  11670902.2122   

STAT_BOX_0      51084.9681      1000            1195.2977       

Steps/sec. : 1569.9374
MOVE_BOX_0      400637          199745          49.8569         0.0960          239825          120013          50.0419         0.2190          159538          585             0.3667          800000          

ENERGY_BOX_0    -464364.9071    105138.0461     0.0000          462075.5550     -196353.3735    -835225.1347    -599942.6216    142020.9583     -12048205.6835  11670902.2122   

STAT_BOX_0      50237.1693      1000            1195.2977       

Steps/sec. : 1562.9424
MOVE_BOX_0      450511          224754          49.8887         0.1138          269905          135103          50.0558         0.2486          179584          585             0.3258          900000          

ENERGY_BOX_0    -531137.1658    105138.0461     0.0000          410216.7705     -196353.3735    -850138.6089    -609486.7677    136651.6302     -12048205.6835  11670902.2122   

STAT_BOX_0      49681.4764      1000            1195.2977       

Steps/sec. : 1559.5435
MOVE_BOX_0      500569          249822          49.9076         0.1110          299857          150120          50.0639         0.2458          199574          585             0.2931          1000000         

ENERGY_BOX_0    -572342.3575    105138.0461     0.0000          391379.5147     -196353.3735    -872506.5448    -623537.3697    128334.2962     -12048205.6835  11670902.2122   

STAT_BOX_0      49551.2365      1000            1195.2977       

Simulation Time (total): 644.6979sec.
GOMC Serial Version 1.9
Completed at: Fri Dec  9 11:29:50 2016
On hostname: potoff39.eng.wayne.edu
