GOMC Serial Version 1.9
Started at: Sat Apr 22 19:49:24 2017
On hostname: potoff14.eng.wayne.edu

Total number of CPUs: 32
Total number of CPUs available: 32
Model name: Intel(R) Xeon(R) CPU E5-2640 v3 @ 2.60GHz

System name: Linux
Release: 3.10.0-327.4.5.el7.x86_64
Version: #1 SMP Mon Jan 25 13:30:47 CST 2016
Kernel Architecture: x86_64
Total Ram: 31904.2MB
Used Ram: 28284.9MB
Working in the current directory /home3/soroush/Desktop/validation/GOMC_Examples/NPT/DME_constArea_340_00_K

------------------------------------------------------
This code was compiled to support the isobaric-isothermal ensemble.
------------------------------------------------------

Number of threads has been set to: 8
REMINDER: EXOTIC force field has been selected!
Pressure of system has been set to 17.06200 bar 
Temperature of system has been set to 340.00000 K 
Ewald Summation method will be used to calculate electrostatic interactions.
Fourier terms will be cached to increase the code performance.
Note: Volume will change with constant X-Y area!
Warning: Pressure calculation is turned off.
Warning: Pressure calculation has been turn off, pressure output for block average will be ignored!
Warning: Pressure calculation has been turn off, pressure fluctuation output will be ignored!
Reading from Exotic Parameter File file: ././../../common/Par_DME_Exotic.inp
Finished reading Exotic Parameter File file: ././../../common/Par_DME_Exotic.inp
Reading from system PDB coordinate file file: ./STEP3_START_DME_NEO_sys_BOX_0.pdb
Finished reading system PDB coordinate file file: ./STEP3_START_DME_NEO_sys_BOX_0.pdb
Random number seed: 992303405

Molecules in PSF:
Molecule Kind: DME
Idx	name	type	charge	mass
0	C1	CT3	0.2650	15.0347
1	O1	OT	-0.5300	15.9994
2	C2	CT3	0.2650	15.0347
Bonds:
[0 1] [1 2] 
Angles:
[0 1 2] 
Dihedrals:

REMINDER! 1-3 and 1-4 Interaction is OFF
Minimum coordinates in box 0: x =    0.003, y =    0.041, z =    0.001
Maximum coordinates in box 0: x =   44.999, y =   54.981, z =   26.882
Box 0, RecipVectors:   4176, kmax: 15, alpha: 0.2423626

###############################################################################
########################## INITIAL SIMULATION ENERGY ##########################

ETITLE:     STEP           TOTAL        INTRA(B)       INTRA(NB)       INTER(LJ)             LRC     TOTAL_ELECT            REAL           RECIP            SELF            CORR

ENER_0:        0     -76044.9440     722387.2474          0.0000    -565288.0282     -10286.9549    -222857.2081    -163986.7737     129232.2507   -4810822.6634    4622719.9783

###############################################################################
############################# STARTING SIMULATION #############################

MTITLE:     STEP          DISTRY       DISACCEPT      DISACCEPT%          DISMAX          ROTATE       ROTACCEPT      ROTACCEPT%          ROTMAX       INTRASWAP       INTACCEPT      INTACCEPT%          VOLUME       VOLACCEPT      VOLACCEPT%          VOLMAX

ETITLE:     STEP           TOTAL        INTRA(B)       INTRA(NB)       INTER(LJ)             LRC     TOTAL_ELECT            REAL           RECIP            SELF            CORR

STITLE:     STEP          VOLUME        TOTALMOL     TOT_DENSITY

Printed combined psf to file dimethylether_NPT_merged.psf
MOVE_0:   100000           39921           19973         50.0313          0.5996           28347           14290         50.4110          1.1874           29826            2932          9.8303            1906            1008         52.8856       1038.4005

ENER_0:   100000    -184056.7618     588365.6197          0.0000    -471831.4623     -10940.4236    -289650.4957    -178940.4908      51502.4739   -4810822.6634    4648610.1847

STAT_0:   100000     104722.6007             500        365.2461

Steps/sec. : 682.8929
MOVE_0:   200000           79850           39980         50.0689          0.6001           56264           28281         50.2648          1.1559           60003            6086         10.1428            3883            2076         53.4638       1128.9446

ENER_0:   200000    -213644.6453     591760.3053          0.0000    -482710.6889     -11955.9186    -310738.3431    -192914.8419      44558.9735   -4810822.6634    4648440.1888

STAT_0:   200000      95827.8192             500        399.1485

Steps/sec. : 671.1911
MOVE_0:   300000          119686           59940         50.0810          0.5898           84157           42261         50.2169          1.1549           90297            8879          9.8331            5860            3101         52.9181        933.6439

ENER_0:   300000    -235190.7406     589250.6263          0.0000    -503673.2857     -12576.2143    -308191.8669    -193025.5945      46995.2011   -4810822.6634    4648661.1900

STAT_0:   300000      91101.3111             500        419.8570

Steps/sec. : 702.1080
MOVE_0:   400000          159637           79961         50.0893          0.5725          112217           56313         50.1822          1.0531          120310           11579          9.6243            7836            4140         52.8331        668.2038

ENER_0:   400000    -249626.1559     590506.6130          0.0000    -515115.8580     -12801.7216    -312215.1893    -197036.5194      46846.5727   -4810822.6634    4648797.4209

STAT_0:   400000      89496.5256             500        427.3856

Steps/sec. : 700.6363
MOVE_0:   500000          199511           99922         50.0835          0.5411          140321           70399         50.1700          1.0184          150315           14404          9.5825            9853            5223         53.0092        881.7698

ENER_0:   500000    -249871.9580     585045.5452          0.0000    -502948.7587     -13301.5121    -318667.2324    -202108.4692      46098.8897   -4810822.6634    4648165.0104

STAT_0:   500000      86133.7868             500        444.0711

Steps/sec. : 720.9468
MOVE_0:   600000          239570          119979         50.0810          0.5190          168275           84422         50.1691          1.1678          180288           17096          9.4826           11867            6275         52.8777       1049.1559

ENER_0:   600000    -264964.8373     582483.5491          0.0000    -522332.4251     -13973.1054    -311142.8559    -195011.4009      46056.7056   -4810822.6634    4648634.5029

STAT_0:   600000      81993.9141             500        466.4923

Steps/sec. : 734.7154
MOVE_0:   700000          279691          140096         50.0896          0.5419          196392           98510         50.1599          1.0306          210047           19017          9.0537           13870            7303         52.6532        514.8702

ENER_0:   700000    -354870.2083     587436.4403          0.0000    -585821.8226     -15640.3514    -340844.4745    -218287.8722      39507.2501   -4810822.6634    4648758.8111

STAT_0:   700000      73253.4441             500        522.1533

Steps/sec. : 747.4967
MOVE_0:   800000          319629          160092         50.0868          0.4937          224572          112616         50.1469          0.9718          239984           20533          8.5560           15815            8320         52.6083        697.2294

ENER_0:   800000    -337149.2113     583950.6638          0.0000    -572718.3668     -15674.6564    -332706.8519    -210941.2486      40659.1338   -4810822.6634    4648397.9263

STAT_0:   800000      73093.1243             500        523.2985

Steps/sec. : 743.0385
MOVE_0:   900000          359627          180149         50.0933          0.4991          252810          126759         50.1400          0.9733          269756           21874          8.1088           17807            9381         52.6815        755.2353

ENER_0:   900000    -362613.1658     592472.3088          0.0000    -598181.8760     -16424.3427    -340479.2558    -217876.2123      39125.9716   -4810822.6634    4649093.6483

STAT_0:   900000      69756.8009             500        548.3268

Steps/sec. : 768.7220
MOVE_0:  1000000          399776          200258         50.0926          0.4760          280897          140814         50.1301          0.8723          299553           22943          7.6591           19774           10403         52.6095        621.8072

ENER_0:  1000000    -405250.8147     588589.0794          0.0000    -636212.3980     -17185.5508    -340441.9453    -216308.1845      38179.2224   -4810822.6634    4648509.6803

STAT_0:  1000000      66667.0286             500        573.7398

Simulation Time (total): 1385.1674sec.
GOMC Serial Version 1.9
Completed at: Sat Apr 22 20:12:30 2017
On hostname: potoff14.eng.wayne.edu
