GOMC Serial Version 2.0
Started at: Sat Apr 22 20:09:31 2017
On hostname: potoff13.eng.wayne.edu

Total number of CPUs: 32
Total number of CPUs available: 32
Model name: Intel(R) Xeon(R) CPU E5-2640 v3 @ 2.60GHz

System name: Linux
Release: 3.10.0-327.4.5.el7.x86_64
Version: #1 SMP Mon Jan 25 13:30:47 CST 2016
Kernel Architecture: x86_64
Total Ram: 31904.2MB
Used Ram: 28059.2MB
Working in the current directory /home3/soroush/Desktop/validation/GOMC_Examples/NVT_GEMC/pure_fluid/DME_320_00_K

------------------------------------------------------
This code was compiled to support the Gibbs ensemble.
------------------------------------------------------

Number of threads has been set to: 8
REMINDER: EXOTIC force field has been selected!
NVT_GEMC simulation has been selected 
Temperature of system has been set to 320.00000 K 
Ewald Summation method will be used to calculate electrostatic interactions.
None cached Fourier terms will be used.
Note: Pressure will be calculated every 1000 steps.
Reading from Exotic Parameter File file: ././../../../common/Par_DME_Exotic.inp
Finished reading Exotic Parameter File file: ././../../../common/Par_DME_Exotic.inp
Reading from Box 1 PDB coordinate file file: ./STEP3_START_DME_BOX_0.pdb
Finished reading Box 1 PDB coordinate file file: ./STEP3_START_DME_BOX_0.pdb
Reading from Box 2 PDB coordinate file file: ./STEP3_START_DME_BOX_1.pdb
Finished reading Box 2 PDB coordinate file file: ./STEP3_START_DME_BOX_1.pdb
Random number seed: 125

Molecules in PSF:
Molecule Kind: DME
Idx	name	type	charge	mass
0	C1	CT3	0.2650	15.0347
1	O1	OT	-0.5300	15.9994
2	C2	CT3	0.2650	15.0347
Bonds:
[0 1] [1 2] 
Angles:
[0 1 2] 
Dihedrals:

REMINDER! 1-3 and 1-4 Interaction is OFF
Minimum coordinates in box 0: x =    0.346, y =    0.222, z =    0.397
Maximum coordinates in box 0: x =   42.495, y =   42.285, z =   42.514
Minimum coordinates in box 1: x =    0.169, y =    0.089, z =    0.031
Maximum coordinates in box 1: x =   49.962, y =   49.948, z =   49.969
box: 0, RecipVectors: 7895, kmax: 16
box: 1, RecipVectors: 12838, kmax: 19

###############################################################################
########################## INITIAL SIMULATION ENERGY ##########################

ETITLE:     STEP           TOTAL        INTRA(B)       INTRA(NB)       INTER(LJ)             LRC     TOTAL_ELECT            REAL           RECIP            SELF            CORR

ENER_0:        0      -3246.6900       2746.7692          0.0000      -3423.9585       -147.0402      -2422.4605       -866.7192      13500.2483    -404109.1037     389053.1141

ENER_1:        0   -1587329.3701     174708.0060          0.0000   -1209161.0527     -94744.8350    -458131.4884    -220008.9739     247321.3452  -13066194.3539   12580750.4941

###############################################################################
############################# STARTING SIMULATION #############################

MTITLE:     STEP          DISTRY       DISACCEPT      DISACCEPT%          DISMAX          ROTATE       ROTACCEPT      ROTACCEPT%          ROTMAX       INTRASWAP       INTACCEPT      INTACCEPT%        TRANSFER      TRANACCEPT     TRANACCEPT%          VOLUME       VOLACCEPT      VOLACCEPT%          VOLMAX

ETITLE:     STEP           TOTAL        INTRA(B)       INTRA(NB)       INTER(LJ)             LRC     TOTAL_ELECT            REAL           RECIP            SELF            CORR

STITLE:     STEP          VOLUME        PRESSURE        TOTALMOL     TOT_DENSITY

Printed combined psf to file dimethylether_320_K_merged.psf
MOVE_0:   100000           19960           12996         65.1102         21.5633           19320           16156         83.6232          3.1416               0               0          0.0000           10143             603          5.9450             959             518         54.0146        982.2113

ENER_0:   100000      -1052.0368       2668.1770          0.0000      -1978.4743        -62.6672      -1679.0723      -1107.0158       9524.9653    -269406.0692     259309.0474

STAT_0:   100000      80211.7083         13.8880              20         19.0743

PRES_0:   100000         -1.4514          4.0344          6.6796

MOVE_1:   100000           20340            9857         48.4612          0.4283           19450            9779         50.2776          0.9326               0               0          0.0000            9828             593          6.0338             959             518         54.0146        982.2113

ENER_1:   100000   -1702335.3783     176756.2282          0.0000   -1295893.1776     -99330.4120    -483868.0169    -234634.4964     242435.1152  -13200897.3885   12709228.7527

STAT_1:   100000     121503.3510        -52.6656             980        617.0124

PRES_1:   100000       -143.9794       -195.9695       -210.4061

Steps/sec. : 364.0906
MOVE_0:   200000           40204           26903         66.9162         21.5842           38920           32899         84.5298          3.1416               0               0          0.0000           20294            1285          6.3319            1968            1051         53.4045       1491.7824

ENER_0:   200000       3112.4127       5924.3477          0.0000      -1838.2625       -122.4727       -851.1998       -287.6457      13376.0444    -377168.4968     363228.8983

STAT_0:   200000      80444.2700         10.7208              28         26.6268

PRES_0:   200000         -4.6277         -5.8102         -2.2731

MOVE_1:   200000           39980           19709         49.2971          0.4141           38833           19512         50.2459          0.8656               0               0          0.0000           19801            1283          6.4795            1968            1051         53.4045       1491.7824

ENER_1:   200000   -1656494.3911     165253.7917          0.0000   -1262118.1729     -97902.6995    -461727.3104    -221627.6458     245491.1535  -13093134.9608   12607544.1426

STAT_1:   200000     121270.7893        -30.9677             972        613.1491

PRES_1:   200000       -133.7395       -170.2484       -183.0270

Steps/sec. : 355.4779
MOVE_0:   300000           60376           39633         65.6436         21.6763           58414           48846         83.6204          3.1416               0               0          0.0000           30103            1880          6.2452            3000            1593         53.1000       2196.5096

ENER_0:   300000        499.9652       4113.5584          0.0000      -1550.7864        -74.6485      -1988.1583      -1009.7271      10068.6360    -296346.6761     285299.6089

STAT_0:   300000      81478.4365         16.3764              22         20.6555

PRES_0:   300000          4.9754          4.5380          4.5864

MOVE_1:   300000           60144           29840         49.6143          0.4544           58127           29215         50.2606          1.0519               0               0          0.0000           29836            1872          6.2743            3000            1593         53.1000       2196.5096

ENER_1:   300000   -1715638.4302     168921.1913          0.0000   -1303307.3612     -99967.6035    -481284.6566    -238428.7632     245666.0778  -13173956.7816   12685434.8104

STAT_1:   300000     120236.6229        -12.6997             978        622.2403

PRES_1:   300000        -38.0982       -156.2469       -233.6546

Steps/sec. : 354.7594
MOVE_0:   400000           80323           52766         65.6923         21.6204           77781           65024         83.5988          3.1416               0               0          0.0000           40084            2499          6.2344            3980            2120         53.2663       1481.5132

ENER_0:   400000       1505.5618       2765.0793          0.0000       -892.1798        -56.1104       -311.2274       -272.2480       9563.5748    -255935.7657     246333.2115

STAT_0:   400000      80850.4614          9.6708              19         17.9774

PRES_0:   400000         -2.2063          0.8324         -0.1870

MOVE_1:   400000           80073           39863         49.7833          0.4641           77796           39057         50.2044          0.8569               0               0          0.0000           39963            2488          6.2258            3980            2120         53.2663       1481.5132

ENER_1:   400000   -1707090.4270     165577.5793          0.0000   -1290007.8345    -100059.2502    -482600.9216    -234738.8084     242098.0423  -13214367.6919   12724407.5364

STAT_1:   400000     120864.5979         40.3968             981        620.9061

PRES_1:   400000       -143.3886        -54.6617        -71.2964

Steps/sec. : 364.6631
MOVE_0:   500000          100280           65779         65.5953         21.4643           97309           81106         83.3489          3.1416               0               0          0.0000           50016            3128          6.2540            4992            2682         53.7260       1669.5584

ENER_0:   500000       3539.4997       3915.8240          0.0000       -302.9856        -51.4661        -21.8726        -35.3644       8743.8678    -242465.4622     233735.0862

STAT_0:   500000      79111.9814          8.8154              18         17.4055

PRES_0:   500000         -0.8498         -0.3486         -1.9738

MOVE_1:   500000          100142           49934         49.8632          0.4005           97341           48881         50.2163          1.0026               0               0          0.0000           49920            3116          6.2420            4992            2682         53.7260       1669.5584

ENER_1:   500000   -1706944.9441     161989.2415          0.0000   -1288924.9406     -98841.6402    -481167.6048    -232600.9337     240685.0676  -13227837.9954   12738586.2567

STAT_1:   500000     122603.0779        -62.8388             982        612.7258

PRES_1:   500000       -253.4295       -166.5380       -162.8495

Steps/sec. : 360.2967
MOVE_0:   600000          120078           78628         65.4808         21.6673          116971           97365         83.2386          3.1416               0               0          0.0000           60017            3743          6.2366            5953            3195         53.6704        562.1424

ENER_0:   600000      -1160.1087       3898.4029          0.0000      -2425.8180        -81.6900      -2551.0035      -1476.3806      10334.4702    -309816.9795     298407.8864

STAT_0:   600000      81377.6113         17.2781              23         21.6212

PRES_0:   600000         -6.2539         20.8721          0.5861

MOVE_1:   600000          120299           60059         49.9248          0.4534          116685           58566         50.1915          0.8403               0               0          0.0000           59997            3736          6.2270            5953            3195         53.6704        562.1424

ENER_1:   600000   -1710477.3328     162038.2381          0.0000   -1284345.6850     -99679.6884    -488490.1976    -243336.1440     242501.4584  -13160486.4781   12672830.9662

STAT_1:   600000     120337.4480         90.9759             977        621.0833

PRES_1:   600000          8.2305         12.0702       -137.8257

Steps/sec. : 374.2657
MOVE_0:   700000          140182           92164         65.7460         21.5684          136418          113630         83.2955          3.1416               0               0          0.0000           70063            4396          6.2744            6959            3751         53.9014       1521.8558

ENER_0:   700000       3389.2810       5074.6623          0.0000       -932.1630        -62.6228       -690.5954       -154.2728       9305.6497    -269406.0692     259564.0968

STAT_0:   700000      80268.5660          6.5733              20         19.0608

PRES_0:   700000         -2.6142         -4.0939         -5.9510

MOVE_1:   700000          140200           70024         49.9458          0.4175          136110           68316         50.1918          0.8704               0               0          0.0000           70068            4386          6.2596            6959            3751         53.9014       1521.8558

ENER_1:   700000   -1707202.1386     163694.8188          0.0000   -1303366.7568     -99376.9156    -468153.2851    -229470.3465     250764.6519  -13200897.3885   12711449.7980

STAT_1:   700000     121446.4933       -167.6373             980        617.3012

PRES_1:   700000       -243.2696       -323.9550       -327.9121

Steps/sec. : 361.5402
MOVE_0:   800000          160341          104219         64.9983         17.2488          155980          129333         82.9164          3.1416               0               0          0.0000           79943            5030          6.2920            7952            4269         53.6846       1205.3262

ENER_0:   800000       1723.5921       5038.0958          0.0000      -2374.1767       -130.5565       -809.7705       -301.2972      13746.5598    -390638.8003     376383.7671

STAT_0:   800000      80949.8016          9.6861              29         27.4055

PRES_0:   800000         -5.1091         -7.0346         -4.9458

MOVE_1:   800000          160283           80110         49.9803          0.4277          155429           78013         50.1920          0.9336               0               0          0.0000           80072            5029          6.2806            7952            4269         53.6846       1205.3262

ENER_1:   800000   -1678622.6769     163769.4674          0.0000   -1269452.6683     -98110.3417    -474829.1342    -233742.4657     244404.9507  -13079664.6574   12594173.0381

STAT_1:   800000     120765.2577          3.5959             971        615.0824

PRES_1:   800000       -119.3784        -63.5118       -199.5629

Steps/sec. : 365.8694
MOVE_0:   900000          180249          117546         65.2131         21.6056          175662          145910         83.0629          3.1416               0               0          0.0000           90061            5671          6.2968            9005            4833         53.6702        917.1549

ENER_0:   900000       3253.1988       4825.6993          0.0000       -976.0700        -45.0121       -551.4184       -120.6157       8035.7252    -228995.1588     220528.6309

STAT_0:   900000      80683.8376          9.5794              17         16.1183

PRES_0:   900000          3.1223         -1.6883         -0.1605

MOVE_1:   900000          180037           90025         50.0036          0.4553          174740           87690         50.1831          0.8336               0               0          0.0000           90246            5658          6.2695            9005            4833         53.6702        917.1549

ENER_1:   900000   -1715119.4367     160681.8307          0.0000   -1291457.3600    -100329.3410    -484014.5663    -239886.9084     247130.0511  -13241308.2989   12750050.5898

STAT_1:   900000     121031.2217        121.8194             983        621.3155

PRES_1:   900000        -32.8515         83.1603        -75.1929

Steps/sec. : 347.5835
MOVE_0:  1000000          200253          130966         65.4003         21.5658          195082          162263         83.1768          3.1416               0               0          0.0000          100002            6296          6.2959           10027            5372         53.5753       1876.0805

ENER_0:  1000000       2886.3916       3799.5482          0.0000       -560.5080        -82.8486       -269.8000       -284.7395      11237.7243    -309816.9795     298594.1946

STAT_0:  1000000      80239.5904         18.8680              23         21.9278

PRES_0:  1000000          3.8693         15.1951          0.4021

MOVE_1:  1000000          200008          100033         50.0145          0.4348          194371           97535         50.1798          0.8456               0               0          0.0000          100257            6289          6.2729           10027            5372         53.5753       1876.0805

ENER_1:  1000000   -1721105.6432     166531.9859          0.0000   -1293840.0887     -98745.8573    -495051.6831    -244116.1940     237732.3763  -13160486.4781   12671818.6127

STAT_1:  1000000     121475.4689       -147.7149             977        615.2647

PRES_1:  1000000       -151.4498       -352.7435       -332.1094

Simulation Time (total): 2774.2681sec.
GOMC Serial Version 2.0
Completed at: Sat Apr 22 20:55:46 2017
On hostname: potoff13.eng.wayne.edu
