 Entering Gaussian System, Link 0=g16
 Initial command:
 /wsu/apps/groups/hbsq/gaussian/b01/SSE4/em64t/g16/l1.exe "/wsu/home/hf/hf68/hf6839/Simulations/heavy_metals_reuse/dihedrals/gaussian/protonated_fragment__CT_CT_C_OH/version_1/Gau-194578.inp" -scrdir="/wsu/home/hf/hf68/hf6839/Simulations/heavy_metals_reuse/dihedrals/gaussian/protonated_fragment__CT_CT_C_OH/version_1/"
 Entering Link 1 = /wsu/apps/groups/hbsq/gaussian/b01/SSE4/em64t/g16/l1.exe PID=    194579.
  
 Copyright (c) 1988-2017, Gaussian, Inc.  All Rights Reserved.
  
 This is part of the Gaussian(R) 16 program.  It is based on
 the Gaussian(R) 09 system (copyright 2009, Gaussian, Inc.),
 the Gaussian(R) 03 system (copyright 2003, Gaussian, Inc.),
 the Gaussian(R) 98 system (copyright 1998, Gaussian, Inc.),
 the Gaussian(R) 94 system (copyright 1995, Gaussian, Inc.),
 the Gaussian 92(TM) system (copyright 1992, Gaussian, Inc.),
 the Gaussian 90(TM) system (copyright 1990, Gaussian, Inc.),
 the Gaussian 88(TM) system (copyright 1988, Gaussian, Inc.),
 the Gaussian 86(TM) system (copyright 1986, Carnegie Mellon
 University), and the Gaussian 82(TM) system (copyright 1983,
 Carnegie Mellon University). Gaussian is a federally registered
 trademark of Gaussian, Inc.
  
 This software contains proprietary and confidential information,
 including trade secrets, belonging to Gaussian, Inc.
  
 This software is provided under written license and may be
 used, copied, transmitted, or stored only in accord with that
 written license.
  
 The following legend is applicable only to US Government
 contracts under FAR:
  
                    RESTRICTED RIGHTS LEGEND
  
 Use, reproduction and disclosure by the US Government is
 subject to restrictions as set forth in subparagraphs (a)
 and (c) of the Commercial Computer Software - Restricted
 Rights clause in FAR 52.227-19.
  
 Gaussian, Inc.
 340 Quinnipiac St., Bldg. 40, Wallingford CT 06492
  
  
 ---------------------------------------------------------------
 Warning -- This program may not be used in any manner that
 competes with the business of Gaussian, Inc. or will provide
 assistance to any competitor of Gaussian, Inc.  The licensee
 of this program is prohibited from giving any competitor of
 Gaussian, Inc. access to this program.  By using this program,
 the user acknowledges that Gaussian, Inc. is engaged in the
 business of creating and licensing software in the field of
 computational chemistry and represents and warrants to the
 licensee that it is not a competitor of Gaussian, Inc. and that
 it will not use this program in any manner prohibited above.
 ---------------------------------------------------------------
  

 Cite this work as:
 Gaussian 16, Revision B.01,
 M. J. Frisch, G. W. Trucks, H. B. Schlegel, G. E. Scuseria, 
 M. A. Robb, J. R. Cheeseman, G. Scalmani, V. Barone, 
 G. A. Petersson, H. Nakatsuji, X. Li, M. Caricato, A. V. Marenich, 
 J. Bloino, B. G. Janesko, R. Gomperts, B. Mennucci, H. P. Hratchian, 
 J. V. Ortiz, A. F. Izmaylov, J. L. Sonnenberg, D. Williams-Young, 
 F. Ding, F. Lipparini, F. Egidi, J. Goings, B. Peng, A. Petrone, 
 T. Henderson, D. Ranasinghe, V. G. Zakrzewski, J. Gao, N. Rega, 
 G. Zheng, W. Liang, M. Hada, M. Ehara, K. Toyota, R. Fukuda, 
 J. Hasegawa, M. Ishida, T. Nakajima, Y. Honda, O. Kitao, H. Nakai, 
 T. Vreven, K. Throssell, J. A. Montgomery, Jr., J. E. Peralta, 
 F. Ogliaro, M. J. Bearpark, J. J. Heyd, E. N. Brothers, K. N. Kudin, 
 V. N. Staroverov, T. A. Keith, R. Kobayashi, J. Normand, 
 K. Raghavachari, A. P. Rendell, J. C. Burant, S. S. Iyengar, 
 J. Tomasi, M. Cossi, J. M. Millam, M. Klene, C. Adamo, R. Cammi, 
 J. W. Ochterski, R. L. Martin, K. Morokuma, O. Farkas, 
 J. B. Foresman, and D. J. Fox, Gaussian, Inc., Wallingford CT, 2016.
 
 ******************************************
 Gaussian 16:  ES64L-G16RevB.01 20-Dec-2017
                26-Dec-2022 
 ******************************************
 %chk=CT_CT_C_OH_version_1.chk
 %nproc=4
 Will use up to    4 processors via shared memory.
 %mem=32GB
 ----------------------------------------------------------------------
 # opt=modredundant UHF/6-31G* SCF=(MaxCycle=1000) Geom=PrintInputOrien
 t
 ----------------------------------------------------------------------
 1/18=120,19=15,38=1/1,3;
 2/9=2110,12=2,17=6,18=5,40=1/2;
 3/5=1,6=6,7=1,11=2,25=1,30=1,71=1,116=2/1,2,3;
 4//1;
 5/5=2,7=1000,38=5/2;
 6/7=2,8=2,9=2,10=2,28=1/1;
 7//1,2,3,16;
 1/18=20,19=15/3(2);
 2/9=2110/2;
 99//99;
 2/9=2110/2;
 3/5=1,6=6,7=1,11=2,25=1,30=1,71=1,116=2/1,2,3;
 4/5=5,16=3,69=1/1;
 5/5=2,7=1000,38=5/2;
 7//1,2,3,16;
 1/18=20,19=15/3(-5);
 2/9=2110/2;
 6/7=2,8=2,9=2,10=2,19=2,28=1/1;
 99/9=1/99;
 ---------------------------
 Dihedral Scan at UHF/6-31G*
 ---------------------------
 Symbolic Z-matrix:
 Charge =  0 Multiplicity = 1
 C                     0.        0.        0. 
 C                    -1.5       0.        0. 
 C                    -2.2       1.2124    0. 
 O                     0.7      -1.2124    0. 
 O                     0.771     1.1685    0. 
 H                    -1.8198   -0.4847   -0.8141 
 H                    -1.8198   -0.4847    0.8141 
 H                    -1.544     1.9671    0. 
 H                    -2.7722    1.258    -0.8188 
 H                    -2.7722    1.258     0.8188 
 H                     1.7395    0.9195    0. 
 
 The following ModRedundant input section has been read:
 D       5       1       2       3 S  36 10.000                                
 

 GradGradGradGradGradGradGradGradGradGradGradGradGradGradGradGradGradGrad
 Berny optimization.
 Initialization pass.
                           ----------------------------
                           !    Initial Parameters    !
                           ! (Angstroms and Degrees)  !
 --------------------------                            --------------------------
 ! Name  Definition              Value          Derivative Info.                !
 --------------------------------------------------------------------------------
 ! R1    R(1,2)                  1.5            estimate D2E/DX2                !
 ! R2    R(1,4)                  1.4            estimate D2E/DX2                !
 ! R3    R(1,5)                  1.3999         estimate D2E/DX2                !
 ! R4    R(2,3)                  1.4            estimate D2E/DX2                !
 ! R5    R(2,6)                  1.0            estimate D2E/DX2                !
 ! R6    R(2,7)                  1.0            estimate D2E/DX2                !
 ! R7    R(3,8)                  1.0            estimate D2E/DX2                !
 ! R8    R(3,9)                  1.0            estimate D2E/DX2                !
 ! R9    R(3,10)                 1.0            estimate D2E/DX2                !
 ! R10   R(5,11)                 1.0            estimate D2E/DX2                !
 ! A1    A(2,1,4)              120.0007         estimate D2E/DX2                !
 ! A2    A(2,1,5)              123.4176         estimate D2E/DX2                !
 ! A3    A(4,1,5)              116.5816         estimate D2E/DX2                !
 ! A4    A(1,2,3)              120.0007         estimate D2E/DX2                !
 ! A5    A(1,2,6)              108.6512         estimate D2E/DX2                !
 ! A6    A(1,2,7)              108.6512         estimate D2E/DX2                !
 ! A7    A(3,2,6)              105.0618         estimate D2E/DX2                !
 ! A8    A(3,2,7)              105.0618         estimate D2E/DX2                !
 ! A9    A(6,2,7)              108.9998         estimate D2E/DX2                !
 ! A10   A(2,3,8)              109.0015         estimate D2E/DX2                !
 ! A11   A(2,3,9)              109.0025         estimate D2E/DX2                !
 ! A12   A(2,3,10)             109.0025         estimate D2E/DX2                !
 ! A13   A(8,3,9)              109.9364         estimate D2E/DX2                !
 ! A14   A(8,3,10)             109.9364         estimate D2E/DX2                !
 ! A15   A(9,3,10)             109.9358         estimate D2E/DX2                !
 ! A16   A(1,5,11)             108.9992         estimate D2E/DX2                !
 ! D1    D(4,1,2,3)            180.0            estimate D2E/DX2                !
 ! D2    D(4,1,2,6)            -59.2312         estimate D2E/DX2                !
 ! D3    D(4,1,2,7)             59.2312         estimate D2E/DX2                !
 ! D4    D(5,1,2,3)              0.0            Scan                            !
 ! D5    D(5,1,2,6)            120.7688         estimate D2E/DX2                !
 ! D6    D(5,1,2,7)           -120.7688         estimate D2E/DX2                !
 ! D7    D(2,1,5,11)           180.0            estimate D2E/DX2                !
 ! D8    D(4,1,5,11)             0.0            estimate D2E/DX2                !
 ! D9    D(1,2,3,8)              0.0            estimate D2E/DX2                !
 ! D10   D(1,2,3,9)            120.0001         estimate D2E/DX2                !
 ! D11   D(1,2,3,10)          -120.0001         estimate D2E/DX2                !
 ! D12   D(6,2,3,8)           -122.5335         estimate D2E/DX2                !
 ! D13   D(6,2,3,9)             -2.5334         estimate D2E/DX2                !
 ! D14   D(6,2,3,10)           117.4664         estimate D2E/DX2                !
 ! D15   D(7,2,3,8)            122.5335         estimate D2E/DX2                !
 ! D16   D(7,2,3,9)           -117.4664         estimate D2E/DX2                !
 ! D17   D(7,2,3,10)             2.5334         estimate D2E/DX2                !
 --------------------------------------------------------------------------------
 Trust Radius=3.00D-01 FncErr=1.00D-07 GrdErr=1.00D-07 EigMax=2.50D+02 EigMin=1.00D-04
 Number of optimizations in scan=  37
 Number of steps in this run=     53 maximum allowed number of steps=    100.
 GradGradGradGradGradGradGradGradGradGradGradGradGradGradGradGradGradGrad

                          Input orientation:                          
 ---------------------------------------------------------------------
 Center     Atomic      Atomic             Coordinates (Angstroms)
 Number     Number       Type             X           Y           Z
 ---------------------------------------------------------------------
      1          6           0        0.000000    0.000000    0.000000
      2          6           0       -1.500000    0.000000    0.000000
      3          6           0       -2.200000    1.212400    0.000000
      4          8           0        0.700000   -1.212400    0.000000
      5          8           0        0.771000    1.168500    0.000000
      6          1           0       -1.819800   -0.484700   -0.814100
      7          1           0       -1.819800   -0.484700    0.814100
      8          1           0       -1.544000    1.967100    0.000000
      9          1           0       -2.772200    1.258000   -0.818800
     10          1           0       -2.772200    1.258000    0.818800
     11          1           0        1.739500    0.919500    0.000000
 ---------------------------------------------------------------------
                    Distance matrix (angstroms):
                    1          2          3          4          5
     1  C    0.000000
     2  C    1.500000   0.000000
     3  C    2.511954   1.399969   0.000000
     4  O    1.399969   2.511954   3.780166   0.000000
     5  O    1.399940   2.553984   2.971324   2.381958   0.000000
     6  H    2.051674   0.999982   1.920276   2.746215   3.179320
     7  H    2.051674   0.999982   1.920276   2.746215   3.179320
     8  H    2.500684   1.967592   0.999954   3.891626   2.448875
     9  H    3.152474   1.967610   0.999963   4.339295   3.637679
    10  H    3.152474   1.967610   0.999963   4.339295   3.637679
    11  H    1.967572   3.367468   3.950373   2.371826   0.999997
                    6          7          8          9         10
     6  H    0.000000
     7  H    1.628200   0.000000
     8  H    2.598105   2.598105   0.000000
     9  H    1.985974   2.571076   1.637599   0.000000
    10  H    2.571076   1.985974   1.637599   1.637600   0.000000
    11  H    3.911924   3.911924   3.446569   4.597875   4.597875
                   11
    11  H    0.000000
 Stoichiometry    C3H6O2
 Framework group  CS[SG(C3H2O2),X(H4)]
 Deg. of freedom    17
 Full point group                 CS      NOp   2
 Largest Abelian subgroup         CS      NOp   2
 Largest concise Abelian subgroup CS      NOp   2
                         Standard orientation:                         
 ---------------------------------------------------------------------
 Center     Atomic      Atomic             Coordinates (Angstroms)
 Number     Number       Type             X           Y           Z
 ---------------------------------------------------------------------
      1          6           0       -0.278505   -0.488633    0.000000
      2          6           0        1.020524    0.261383    0.000000
      3          6           0        1.020524    1.661353    0.000000
      4          8           0       -0.278505   -1.888602    0.000000
      5          8           0       -1.530468    0.137802    0.000000
      6          1           0        1.539832    0.001528    0.814100
      7          1           0        1.539832    0.001528   -0.814100
      8          1           0        0.075057    1.986930    0.000000
      9          1           0        1.493259    1.986949    0.818800
     10          1           0        1.493259    1.986949   -0.818800
     11          1           0       -2.244705   -0.562098    0.000000
 ---------------------------------------------------------------------
 Rotational constants (GHZ):           9.1318304           3.7477185           2.7344707
 Standard basis: 6-31G(d) (6D, 7F)
 There are    63 symmetry adapted cartesian basis functions of A'  symmetry.
 There are    24 symmetry adapted cartesian basis functions of A"  symmetry.
 There are    63 symmetry adapted basis functions of A'  symmetry.
 There are    24 symmetry adapted basis functions of A"  symmetry.
    87 basis functions,   164 primitive gaussians,    87 cartesian basis functions
    20 alpha electrons       20 beta electrons
       nuclear repulsion energy       175.6464943547 Hartrees.
 NAtoms=   11 NActive=   11 NUniq=    9 SFac= 1.49D+00 NAtFMM=   60 NAOKFM=F Big=F
 Integral buffers will be    131072 words long.
 Raffenetti 2 integral format.
 Two-electron integral symmetry is turned on.
 One-electron integrals computed using PRISM.
 NBasis=    87 RedAO= T EigKep=  3.24D-03  NBF=    63    24
 NBsUse=    87 1.00D-06 EigRej= -1.00D+00 NBFU=    63    24
 ExpMin= 1.61D-01 ExpMax= 5.48D+03 ExpMxC= 8.25D+02 IAcc=3 IRadAn=         5 AccDes= 0.00D+00
 Harris functional with IExCor=  205 and IRadAn=       5 diagonalized for initial guess.
 HarFok:  IExCor=  205 AccDes= 0.00D+00 IRadAn=         5 IDoV= 1 UseB2=F ITyADJ=14
 ICtDFT=  3500011 ScaDFX=  1.000000  1.000000  1.000000  1.000000
 FoFCou: FMM=F IPFlag=           0 FMFlag=      100000 FMFlg1=           0
         NFxFlg=           0 DoJE=T BraDBF=F KetDBF=T FulRan=T
         wScrn=  0.000000 ICntrl=       500 IOpCl=  0 I1Cent=   200000004 NGrid=           0
         NMat0=    1 NMatS0=      1 NMatT0=    0 NMatD0=    1 NMtDS0=    0 NMtDT0=    0
 Petite list used in FoFCou.
 Initial guess orbital symmetries:
 Alpha Orbitals:
       Occupied  (A') (A') (A') (A') (A') (A') (A') (A') (A') (A')
                 (A") (A') (A') (A') (A") (A') (A') (A") (A") (A')
       Virtual   (A") (A') (A') (A") (A') (A') (A') (A') (A") (A')
                 (A') (A') (A") (A') (A') (A') (A") (A') (A') (A")
                 (A') (A') (A") (A') (A") (A') (A') (A") (A') (A')
                 (A") (A') (A') (A') (A") (A') (A") (A') (A') (A')
                 (A") (A') (A") (A') (A") (A') (A') (A') (A") (A')
                 (A") (A') (A') (A") (A') (A") (A') (A") (A') (A')
                 (A') (A') (A') (A') (A') (A') (A')
 Beta  Orbitals:
       Occupied  (A') (A') (A') (A') (A') (A') (A') (A') (A') (A')
                 (A") (A') (A') (A') (A") (A') (A') (A") (A") (A')
       Virtual   (A") (A') (A') (A") (A') (A') (A') (A') (A") (A')
                 (A') (A') (A") (A') (A') (A') (A") (A') (A') (A")
                 (A') (A') (A") (A') (A") (A') (A') (A") (A') (A')
                 (A") (A') (A') (A') (A") (A') (A") (A') (A') (A')
                 (A") (A') (A") (A') (A") (A') (A') (A') (A") (A')
                 (A") (A') (A') (A") (A') (A") (A') (A") (A') (A')
                 (A') (A') (A') (A') (A') (A') (A')
 The electronic state of the initial guess is 1-A'.
 Initial guess <Sx>= 0.0000 <Sy>= 0.0000 <Sz>= 0.0000 <S**2>=-0.0000 S=-0.0000
 Keep R1 and R2 ints in memory in symmetry-blocked form, NReq=11490485.
 Requested convergence on RMS density matrix=1.00D-08 within1000 cycles.
 Requested convergence on MAX density matrix=1.00D-06.
 Requested convergence on             energy=1.00D-06.
 No special actions if energy rises.
 SCF Done:  E(UHF) =  -266.722996610     A.U. after   14 cycles
            NFock= 14  Conv=0.71D-08     -V/T= 2.0009
 <Sx>= 0.0000 <Sy>= 0.0000 <Sz>= 0.0000 <S**2>=-0.0000 S=-0.0000
 <L.S>= 0.000000000000E+00
 Annihilation of the first spin contaminant:
 S**2 before annihilation    -0.0000,   after     0.0000

 **********************************************************************

            Population analysis using the SCF Density.

 **********************************************************************

 Orbital symmetries:
 Alpha Orbitals:
       Occupied  (A') (A') (A') (A') (A') (A') (A') (A') (A') (A')
                 (A") (A') (A') (A') (A") (A') (A") (A') (A') (A")
       Virtual   (A") (A') (A') (A") (A') (A') (A') (A") (A') (A')
                 (A') (A") (A') (A') (A') (A') (A") (A') (A") (A')
                 (A') (A') (A") (A') (A') (A") (A') (A") (A') (A")
                 (A') (A') (A') (A') (A") (A") (A') (A') (A') (A')
                 (A") (A') (A") (A') (A") (A') (A') (A') (A") (A')
                 (A') (A") (A') (A") (A") (A') (A') (A") (A') (A')
                 (A') (A') (A') (A') (A') (A') (A')
 Beta  Orbitals:
       Occupied  (A') (A') (A') (A') (A') (A') (A') (A') (A') (A')
                 (A") (A') (A') (A') (A") (A') (A") (A') (A') (A")
       Virtual   (A") (A') (A') (A") (A') (A') (A') (A") (A') (A')
                 (A') (A") (A') (A') (A') (A') (A") (A') (A") (A')
                 (A') (A') (A") (A') (A') (A") (A') (A") (A') (A")
                 (A') (A') (A') (A') (A") (A") (A') (A') (A') (A')
                 (A") (A') (A") (A') (A") (A') (A') (A') (A") (A')
                 (A') (A") (A') (A") (A") (A') (A') (A") (A') (A')
                 (A') (A') (A') (A') (A') (A') (A')
 The electronic state is 1-A'.
 Alpha  occ. eigenvalues --  -20.63959 -20.54108 -11.42075 -11.23312 -11.19135
 Alpha  occ. eigenvalues --   -1.42426  -1.25961  -1.13152  -0.93408  -0.82939
 Alpha  occ. eigenvalues --   -0.70276  -0.68395  -0.67664  -0.61162  -0.59557
 Alpha  occ. eigenvalues --   -0.53619  -0.53283  -0.52632  -0.42989  -0.42311
 Alpha virt. eigenvalues --    0.13054   0.20349   0.23760   0.27836   0.31099
 Alpha virt. eigenvalues --    0.33105   0.39630   0.40453   0.42659   0.45831
 Alpha virt. eigenvalues --    0.51686   0.69304   0.70693   0.74108   0.80161
 Alpha virt. eigenvalues --    0.81182   0.82446   0.86773   0.93005   1.00507
 Alpha virt. eigenvalues --    1.03392   1.06375   1.14251   1.16149   1.17197
 Alpha virt. eigenvalues --    1.20764   1.22166   1.26345   1.30419   1.34590
 Alpha virt. eigenvalues --    1.34987   1.37212   1.39423   1.51590   1.57417
 Alpha virt. eigenvalues --    1.66330   1.68565   1.76439   1.82518   1.97336
 Alpha virt. eigenvalues --    1.97801   2.06693   2.09970   2.11625   2.16846
 Alpha virt. eigenvalues --    2.17136   2.26702   2.32780   2.44482   2.47230
 Alpha virt. eigenvalues --    2.55475   2.56011   2.70231   2.72080   2.75699
 Alpha virt. eigenvalues --    2.77943   2.84856   2.93458   3.04691   3.12026
 Alpha virt. eigenvalues --    3.26625   3.31566   4.15883   4.29920   4.55994
 Alpha virt. eigenvalues --    4.74757   4.94619
  Beta  occ. eigenvalues --  -20.63959 -20.54108 -11.42075 -11.23312 -11.19135
  Beta  occ. eigenvalues --   -1.42426  -1.25961  -1.13152  -0.93408  -0.82939
  Beta  occ. eigenvalues --   -0.70276  -0.68395  -0.67664  -0.61162  -0.59557
  Beta  occ. eigenvalues --   -0.53619  -0.53283  -0.52632  -0.42989  -0.42311
  Beta virt. eigenvalues --    0.13054   0.20349   0.23760   0.27836   0.31099
  Beta virt. eigenvalues --    0.33105   0.39630   0.40453   0.42659   0.45831
  Beta virt. eigenvalues --    0.51686   0.69304   0.70693   0.74108   0.80161
  Beta virt. eigenvalues --    0.81182   0.82446   0.86773   0.93005   1.00507
  Beta virt. eigenvalues --    1.03392   1.06375   1.14251   1.16149   1.17197
  Beta virt. eigenvalues --    1.20764   1.22166   1.26345   1.30419   1.34590
  Beta virt. eigenvalues --    1.34987   1.37212   1.39423   1.51590   1.57417
  Beta virt. eigenvalues --    1.66330   1.68565   1.76439   1.82518   1.97336
  Beta virt. eigenvalues --    1.97801   2.06693   2.09970   2.11625   2.16846
  Beta virt. eigenvalues --    2.17136   2.26702   2.32780   2.44482   2.47230
  Beta virt. eigenvalues --    2.55475   2.56011   2.70231   2.72080   2.75699
  Beta virt. eigenvalues --    2.77943   2.84856   2.93458   3.04691   3.12026
  Beta virt. eigenvalues --    3.26625   3.31566   4.15883   4.29920   4.55994
  Beta virt. eigenvalues --    4.74757   4.94619
          Condensed to atoms (all electrons):
               1          2          3          4          5          6
     1  C    4.265250   0.354690  -0.033920   0.462890   0.271617  -0.026298
     2  C    0.354690   5.225939   0.239277  -0.055095  -0.057320   0.410996
     3  C   -0.033920   0.239277   5.172786   0.003024   0.000784  -0.053891
     4  O    0.462890  -0.055095   0.003024   8.306129  -0.063540  -0.000448
     5  O    0.271617  -0.057320   0.000784  -0.063540   8.321508   0.001202
     6  H   -0.026298   0.410996  -0.053891  -0.000448   0.001202   0.447524
     7  H   -0.026298   0.410996  -0.053891  -0.000448   0.001202  -0.012457
     8  H   -0.009175  -0.052563   0.410372   0.000136   0.003835   0.004462
     9  H    0.002309  -0.044007   0.412272  -0.000052  -0.000009  -0.012279
    10  H    0.002309  -0.044007   0.412272  -0.000052  -0.000009   0.004104
    11  H   -0.012476   0.004663  -0.000322   0.007772   0.243120  -0.000096
               7          8          9         10         11
     1  C   -0.026298  -0.009175   0.002309   0.002309  -0.012476
     2  C    0.410996  -0.052563  -0.044007  -0.044007   0.004663
     3  C   -0.053891   0.410372   0.412272   0.412272  -0.000322
     4  O   -0.000448   0.000136  -0.000052  -0.000052   0.007772
     5  O    0.001202   0.003835  -0.000009  -0.000009   0.243120
     6  H   -0.012457   0.004462  -0.012279   0.004104  -0.000096
     7  H    0.447524   0.004462   0.004104  -0.012279  -0.000096
     8  H    0.004462   0.473399  -0.021496  -0.021496  -0.000123
     9  H    0.004104  -0.021496   0.506055  -0.027458   0.000006
    10  H   -0.012279  -0.021496  -0.027458   0.506055   0.000006
    11  H   -0.000096  -0.000123   0.000006   0.000006   0.265275
          Atomic-Atomic Spin Densities.
               1          2          3          4          5          6
     1  C    0.000000   0.000000   0.000000   0.000000   0.000000   0.000000
     2  C    0.000000   0.000000   0.000000   0.000000   0.000000   0.000000
     3  C    0.000000   0.000000   0.000000   0.000000   0.000000   0.000000
     4  O    0.000000   0.000000   0.000000   0.000000   0.000000   0.000000
     5  O    0.000000   0.000000   0.000000   0.000000   0.000000   0.000000
     6  H    0.000000   0.000000   0.000000   0.000000   0.000000   0.000000
     7  H    0.000000   0.000000   0.000000   0.000000   0.000000   0.000000
     8  H    0.000000   0.000000   0.000000   0.000000   0.000000   0.000000
     9  H    0.000000   0.000000   0.000000   0.000000   0.000000   0.000000
    10  H    0.000000   0.000000   0.000000   0.000000   0.000000   0.000000
    11  H    0.000000   0.000000   0.000000   0.000000   0.000000   0.000000
               7          8          9         10         11
     1  C    0.000000   0.000000   0.000000   0.000000   0.000000
     2  C    0.000000   0.000000   0.000000   0.000000   0.000000
     3  C    0.000000   0.000000   0.000000   0.000000   0.000000
     4  O    0.000000   0.000000   0.000000   0.000000   0.000000
     5  O    0.000000   0.000000   0.000000   0.000000   0.000000
     6  H    0.000000   0.000000   0.000000   0.000000   0.000000
     7  H    0.000000   0.000000   0.000000   0.000000   0.000000
     8  H    0.000000   0.000000   0.000000   0.000000   0.000000
     9  H    0.000000   0.000000   0.000000   0.000000   0.000000
    10  H    0.000000   0.000000   0.000000   0.000000   0.000000
    11  H    0.000000   0.000000   0.000000   0.000000   0.000000
 Mulliken charges and spin densities:
               1          2
     1  C    0.749105   0.000000
     2  C   -0.393568   0.000000
     3  C   -0.508762   0.000000
     4  O   -0.660316   0.000000
     5  O   -0.722389   0.000000
     6  H    0.237181   0.000000
     7  H    0.237181   0.000000
     8  H    0.208187   0.000000
     9  H    0.180555   0.000000
    10  H    0.180555   0.000000
    11  H    0.492272   0.000000
 Sum of Mulliken charges =  -0.00000   0.00000
 Mulliken charges and spin densities with hydrogens summed into heavy atoms:
               1          2
     1  C    0.749105   0.000000
     2  C    0.080793   0.000000
     3  C    0.060535   0.000000
     4  O   -0.660316   0.000000
     5  O   -0.230117   0.000000
 Electronic spatial extent (au):  <R**2>=            455.8355
 Charge=             -0.0000 electrons
 Dipole moment (field-independent basis, Debye):
    X=              0.4058    Y=              2.9473    Z=              0.0000  Tot=              2.9751
 Quadrupole moment (field-independent basis, Debye-Ang):
   XX=            -23.7579   YY=            -39.2611   ZZ=            -29.0244
   XY=              2.8257   XZ=             -0.0000   YZ=              0.0000
 Traceless Quadrupole moment (field-independent basis, Debye-Ang):
   XX=              6.9232   YY=             -8.5800   ZZ=              1.6568
   XY=              2.8257   XZ=             -0.0000   YZ=              0.0000
 Octapole moment (field-independent basis, Debye-Ang**2):
  XXX=            -18.0696  YYY=             13.0447  ZZZ=              0.0000  XYY=             -0.9622
  XXY=             -6.9918  XXZ=              0.0000  XZZ=              0.1953  YZZ=             -0.6396
  YYZ=              0.0000  XYZ=             -0.0000
 Hexadecapole moment (field-independent basis, Debye-Ang**3):
 XXXX=           -173.3173 YYYY=           -333.1589 ZZZZ=            -34.9640 XXXY=            -33.7950
 XXXZ=              0.0000 YYYX=            -57.3598 YYYZ=             -0.0000 ZZZX=              0.0000
 ZZZY=             -0.0000 XXYY=            -84.5633 XXZZ=            -40.2549 YYZZ=            -55.1991
 XXYZ=              0.0000 YYXZ=             -0.0000 ZZXY=            -15.7465
 N-N= 1.756464943547D+02 E-N=-9.785639794393D+02  KE= 2.664722531693D+02
 Symmetry A'   KE= 2.541008314349D+02
 Symmetry A"   KE= 1.237142173446D+01
 Symmetry A'   SP= 0.000000000000D+00
 Symmetry A"   SP= 0.000000000000D+00
                          Isotropic Fermi Contact Couplings
        Atom                 a.u.       MegaHertz       Gauss      10(-4) cm-1
     1  C(13)              0.00000       0.00000       0.00000       0.00000
     2  C(13)              0.00000       0.00000       0.00000       0.00000
     3  C(13)              0.00000       0.00000       0.00000       0.00000
     4  O(17)              0.00000      -0.00000      -0.00000      -0.00000
     5  O(17)              0.00000      -0.00000      -0.00000      -0.00000
     6  H(1)               0.00000       0.00000       0.00000       0.00000
     7  H(1)               0.00000       0.00000       0.00000       0.00000
     8  H(1)               0.00000       0.00000       0.00000       0.00000
     9  H(1)               0.00000       0.00000       0.00000       0.00000
    10  H(1)               0.00000       0.00000       0.00000       0.00000
    11  H(1)               0.00000       0.00000       0.00000       0.00000
 --------------------------------------------------------
       Center         ----  Spin Dipole Couplings  ----
                      3XX-RR        3YY-RR        3ZZ-RR
 --------------------------------------------------------
     1   Atom        0.000000      0.000000      0.000000
     2   Atom        0.000000      0.000000      0.000000
     3   Atom        0.000000      0.000000      0.000000
     4   Atom        0.000000      0.000000      0.000000
     5   Atom        0.000000      0.000000      0.000000
     6   Atom        0.000000      0.000000      0.000000
     7   Atom        0.000000      0.000000      0.000000
     8   Atom        0.000000      0.000000      0.000000
     9   Atom        0.000000      0.000000      0.000000
    10   Atom        0.000000      0.000000      0.000000
    11   Atom        0.000000      0.000000      0.000000
 --------------------------------------------------------
                        XY            XZ            YZ
 --------------------------------------------------------
     1   Atom        0.000000      0.000000      0.000000
     2   Atom        0.000000      0.000000      0.000000
     3   Atom        0.000000      0.000000      0.000000
     4   Atom        0.000000      0.000000      0.000000
     5   Atom        0.000000      0.000000      0.000000
     6   Atom        0.000000      0.000000      0.000000
     7   Atom        0.000000      0.000000      0.000000
     8   Atom        0.000000      0.000000      0.000000
     9   Atom        0.000000      0.000000      0.000000
    10   Atom        0.000000      0.000000      0.000000
    11   Atom        0.000000      0.000000      0.000000
 --------------------------------------------------------


 ---------------------------------------------------------------------------------
              Anisotropic Spin Dipole Couplings in Principal Axis System
 ---------------------------------------------------------------------------------

       Atom             a.u.   MegaHertz   Gauss  10(-4) cm-1        Axes

              Baa     0.0000     0.000     0.000     0.000  1.0000  0.0000  0.0000
     1 C(13)  Bbb     0.0000     0.000     0.000     0.000 -0.0000  1.0000  0.0000
              Bcc     0.0000     0.000     0.000     0.000  0.0000  0.0000  1.0000
 
              Baa     0.0000     0.000     0.000     0.000  1.0000  0.0000  0.0000
     2 C(13)  Bbb     0.0000     0.000     0.000     0.000 -0.0000  1.0000  0.0000
              Bcc     0.0000     0.000     0.000     0.000  0.0000  0.0000  1.0000
 
              Baa     0.0000     0.000     0.000     0.000  1.0000  0.0000  0.0000
     3 C(13)  Bbb     0.0000     0.000     0.000     0.000 -0.0000  1.0000  0.0000
              Bcc     0.0000     0.000     0.000     0.000  0.0000  0.0000  1.0000
 
              Baa     0.0000    -0.000    -0.000    -0.000  1.0000  0.0000  0.0000
     4 O(17)  Bbb     0.0000    -0.000    -0.000    -0.000 -0.0000  1.0000  0.0000
              Bcc     0.0000    -0.000    -0.000    -0.000  0.0000  0.0000  1.0000
 
              Baa     0.0000    -0.000    -0.000    -0.000  1.0000  0.0000  0.0000
     5 O(17)  Bbb     0.0000    -0.000    -0.000    -0.000 -0.0000  1.0000  0.0000
              Bcc     0.0000    -0.000    -0.000    -0.000  0.0000  0.0000  1.0000
 
              Baa     0.0000     0.000     0.000     0.000  1.0000  0.0000  0.0000
     6 H(1)   Bbb     0.0000     0.000     0.000     0.000 -0.0000  1.0000  0.0000
              Bcc     0.0000     0.000     0.000     0.000  0.0000  0.0000  1.0000
 
              Baa     0.0000     0.000     0.000     0.000  1.0000  0.0000  0.0000
     7 H(1)   Bbb     0.0000     0.000     0.000     0.000 -0.0000  1.0000  0.0000
              Bcc     0.0000     0.000     0.000     0.000  0.0000  0.0000  1.0000
 
              Baa     0.0000     0.000     0.000     0.000  1.0000  0.0000  0.0000
     8 H(1)   Bbb     0.0000     0.000     0.000     0.000 -0.0000  1.0000  0.0000
              Bcc     0.0000     0.000     0.000     0.000  0.0000  0.0000  1.0000
 
              Baa     0.0000     0.000     0.000     0.000  1.0000  0.0000  0.0000
     9 H(1)   Bbb     0.0000     0.000     0.000     0.000 -0.0000  1.0000  0.0000
              Bcc     0.0000     0.000     0.000     0.000  0.0000  0.0000  1.0000
 
              Baa     0.0000     0.000     0.000     0.000  1.0000  0.0000  0.0000
    10 H(1)   Bbb     0.0000     0.000     0.000     0.000 -0.0000  1.0000  0.0000
              Bcc     0.0000     0.000     0.000     0.000  0.0000  0.0000  1.0000
 
              Baa     0.0000     0.000     0.000     0.000  1.0000  0.0000  0.0000
    11 H(1)   Bbb     0.0000     0.000     0.000     0.000 -0.0000  1.0000  0.0000
              Bcc     0.0000     0.000     0.000     0.000  0.0000  0.0000  1.0000
 

 ---------------------------------------------------------------------------------

 Calling FoFJK, ICntrl=      2127 FMM=F ISym2X=1 I1Cent= 0 IOpClX= 1 NMat=1 NMatS=1 NMatT=0.
 ***** Axes restored to original set *****
 -------------------------------------------------------------------
 Center     Atomic                   Forces (Hartrees/Bohr)
 Number     Number              X              Y              Z
 -------------------------------------------------------------------
      1        6           0.162787521   -0.137913605   -0.000000000
      2        6           0.077081176   -0.004405121    0.000000000
      3        6           0.001764486    0.033953152   -0.000000000
      4        8          -0.105838230    0.182997561    0.000000000
      5        8          -0.020240825   -0.062528468    0.000000000
      6        1          -0.006822094   -0.055582461   -0.057097345
      7        1          -0.006822094   -0.055582461    0.057097345
      8        1           0.038567423    0.068530502    0.000000000
      9        1          -0.046731696    0.014730117   -0.058775433
     10        1          -0.046731696    0.014730117    0.058775433
     11        1          -0.047013971    0.001070666    0.000000000
 -------------------------------------------------------------------
 Cartesian Forces:  Max     0.182997561 RMS     0.063852180

 GradGradGradGradGradGradGradGradGradGradGradGradGradGradGradGradGradGrad
 Berny optimization.
 FormGI is forming the generalized inverse of G from B-inverse, IUseBI=4.
 Internal  Forces:  Max     0.211399654 RMS     0.050081500
 Search for a local minimum.
 Step number   1 out of a maximum of   53 on scan point     1 out of    37
 All quantities printed in internal units (Hartrees-Bohrs-Radians)
 Mixed Optimization -- RFO/linear search
 Second derivative matrix not updated -- first step.
 ITU=  0
     Eigenvalues ---    0.00890   0.01693   0.02089   0.03405   0.06186
     Eigenvalues ---    0.07004   0.07004   0.10599   0.12830   0.16000
     Eigenvalues ---    0.16000   0.16000   0.16000   0.22202   0.25000
     Eigenvalues ---    0.25000   0.32377   0.45626   0.45626   0.45630
     Eigenvalues ---    0.47689   0.47691   0.47691   0.47695   0.47695
     Eigenvalues ---    0.476961000.000001000.000001000.000001000.00000
     Eigenvalues --- 1000.000001000.000001000.000001000.000001000.00000
     Eigenvalues --- 1000.000001000.000001000.000001000.000001000.00000
     Eigenvalues --- 1000.000001000.000001000.00000
 RFO step:  Lambda=-1.75709474D-01 EMin= 8.89813319D-03
 Linear search not attempted -- first point.
 Maximum step size (   0.300) exceeded in Quadratic search.
    -- Step size scaled by   0.558
 Iteration  1 RMS(Cart)=  0.06227817 RMS(Int)=  0.00079459
 Iteration  2 RMS(Cart)=  0.00087524 RMS(Int)=  0.00032455
 Iteration  3 RMS(Cart)=  0.00000111 RMS(Int)=  0.00032455
 Iteration  4 RMS(Cart)=  0.00000000 RMS(Int)=  0.00032455
 Iteration  1 RMS(Cart)=  0.00000000 RMS(Int)=  0.00000000
 ClnCor:  largest displacement from symmetrization is 4.89D-09 for atom    11.
 Variable       Old X    -DE/DX   Delta X   Delta X   Delta X     New X
                                 (Linear)    (Quad)   (Total)
    R1        2.83459  -0.01031   0.00000  -0.01152  -0.01152   2.82307
    R2        2.64556  -0.21140   0.00000  -0.18674  -0.18674   2.45881
    R3        2.64550  -0.08834   0.00000  -0.07803  -0.07803   2.56748
    R4        2.64556   0.14083   0.00000   0.12441   0.12441   2.76997
    R5        1.88969   0.07561   0.00000   0.06467   0.06467   1.95437
    R6        1.88969   0.07561   0.00000   0.06467   0.06467   1.95437
    R7        1.88964   0.07702   0.00000   0.06588   0.06588   1.95552
    R8        1.88966   0.07554   0.00000   0.06461   0.06461   1.95427
    R9        1.88966   0.07554   0.00000   0.06461   0.06461   1.95427
   R10        1.88972  -0.04580   0.00000  -0.03918  -0.03918   1.85054
    A1        2.09441   0.01266   0.00000   0.01660   0.01660   2.11101
    A2        2.15404  -0.02573   0.00000  -0.03374  -0.03374   2.12030
    A3        2.03473   0.01307   0.00000   0.01714   0.01714   2.05188
    A4        2.09441  -0.01503   0.00000  -0.01964  -0.01935   2.07506
    A5        1.89632  -0.01071   0.00000  -0.02384  -0.02369   1.87263
    A6        1.89632  -0.01071   0.00000  -0.02384  -0.02369   1.87263
    A7        1.83367   0.02253   0.00000   0.04172   0.04133   1.87500
    A8        1.83367   0.02253   0.00000   0.04172   0.04133   1.87500
    A9        1.90240  -0.00729   0.00000  -0.01395  -0.01553   1.88687
   A10        1.90243   0.01674   0.00000   0.02793   0.02765   1.93008
   A11        1.90245   0.01097   0.00000   0.01820   0.01798   1.92043
   A12        1.90245   0.01097   0.00000   0.01820   0.01798   1.92043
   A13        1.91875  -0.01344   0.00000  -0.02227  -0.02254   1.89621
   A14        1.91875  -0.01344   0.00000  -0.02227  -0.02254   1.89621
   A15        1.91874  -0.01112   0.00000  -0.01866  -0.01882   1.89992
   A16        1.90240  -0.02016   0.00000  -0.03353  -0.03353   1.86887
    D1        3.14159   0.00000   0.00000   0.00000   0.00000   3.14159
    D2       -1.03378   0.01043   0.00000   0.02187   0.02175  -1.01203
    D3        1.03378  -0.01043   0.00000  -0.02187  -0.02175   1.01203
    D4        0.00000   0.00000   0.00000   0.00000   0.00000   0.00000
    D5        2.10781   0.01043   0.00000   0.02187   0.02175   2.12956
    D6       -2.10781  -0.01043   0.00000  -0.02187  -0.02175  -2.12956
    D7        3.14159  -0.00000   0.00000  -0.00000   0.00000   3.14159
    D8        0.00000  -0.00000   0.00000  -0.00000   0.00000   0.00000
    D9        0.00000  -0.00000   0.00000  -0.00000   0.00000   0.00000
   D10        2.09440   0.00021   0.00000   0.00048   0.00051   2.09490
   D11       -2.09440  -0.00021   0.00000  -0.00048  -0.00051  -2.09490
   D12       -2.13861   0.00543   0.00000   0.00980   0.01024  -2.12837
   D13       -0.04422   0.00564   0.00000   0.01028   0.01075  -0.03347
   D14        2.05018   0.00522   0.00000   0.00933   0.00973   2.05991
   D15        2.13861  -0.00543   0.00000  -0.00980  -0.01024   2.12837
   D16       -2.05018  -0.00522   0.00000  -0.00933  -0.00973  -2.05991
   D17        0.04422  -0.00564   0.00000  -0.01028  -0.01075   0.03347
         Item               Value     Threshold  Converged?
 Maximum Force            0.211400     0.000450     NO 
 RMS     Force            0.050674     0.000300     NO 
 Maximum Displacement     0.147458     0.001800     NO 
 RMS     Displacement     0.062467     0.001200     NO 
 Predicted change in Energy=-7.883360D-02
 GradGradGradGradGradGradGradGradGradGradGradGradGradGradGradGradGradGrad

                          Input orientation:                          
 ---------------------------------------------------------------------
 Center     Atomic      Atomic             Coordinates (Angstroms)
 Number     Number       Type             X           Y           Z
 ---------------------------------------------------------------------
      1          6           0        0.019006   -0.028068    0.000000
      2          6           0       -1.474870   -0.037346    0.000000
      3          6           0       -2.191048    1.241586    0.000000
      4          8           0        0.695124   -1.139756    0.000000
      5          8           0        0.721373    1.134949    0.000000
      6          1           0       -1.779056   -0.562731   -0.837273
      7          1           0       -1.779056   -0.562731    0.837273
      8          1           0       -1.523579    2.032365    0.000000
      9          1           0       -2.788367    1.313112   -0.841173
     10          1           0       -2.788367    1.313112    0.841173
     11          1           0        1.671340    0.897209    0.000000
 ---------------------------------------------------------------------
                    Distance matrix (angstroms):
                    1          2          3          4          5
     1  C    0.000000
     2  C    1.493905   0.000000
     3  C    2.548796   1.465803   0.000000
     4  O    1.301148   2.433965   3.741762   0.000000
     5  O    1.358649   2.489530   2.914373   2.274857   0.000000
     6  H    2.054243   1.034207   2.031335   2.674986   3.136126
     7  H    2.054243   1.034207   2.031335   2.674986   3.136126
     8  H    2.573898   2.070284   1.034817   3.871046   2.417677
     9  H    3.222992   2.063148   1.034155   4.342677   3.613528
    10  H    3.222992   2.063148   1.034155   4.342677   3.613528
    11  H    1.893765   3.282077   3.877711   2.258810   0.979264
                    6          7          8          9         10
     6  H    0.000000
     7  H    1.674545   0.000000
     8  H    2.738762   2.738762   0.000000
     9  H    2.130143   2.711950   1.680650   0.000000
    10  H    2.711950   2.130143   1.680650   1.682345   0.000000
    11  H    3.838969   3.838969   3.390588   4.557360   4.557360
                   11
    11  H    0.000000
 Stoichiometry    C3H6O2
 Framework group  CS[SG(C3H2O2),X(H4)]
 Deg. of freedom    17
 Full point group                 CS      NOp   2
 Largest Abelian subgroup         CS      NOp   2
 Largest concise Abelian subgroup CS      NOp   2
                         Standard orientation:                         
 ---------------------------------------------------------------------
 Center     Atomic      Atomic             Coordinates (Angstroms)
 Number     Number       Type             X           Y           Z
 ---------------------------------------------------------------------
      1          6           0        0.000000   -0.596870    0.000000
      2          6           0        0.794510    0.668241    0.000000
      3          6           0        0.084359    1.950529    0.000000
      4          8           0        0.589065   -1.757038    0.000000
      5          8           0       -1.358563   -0.581574    0.000000
      6          1           0        1.401332    0.650191    0.837273
      7          1           0        1.401332    0.650191   -0.837273
      8          1           0       -0.939376    1.799486    0.000000
      9          1           0        0.338078    2.495994    0.841173
     10          1           0        0.338078    2.495994   -0.841173
     11          1           0       -1.656671   -1.514360    0.000000
 ---------------------------------------------------------------------
 Rotational constants (GHZ):           9.6367987           3.8202227           2.8224854
 Standard basis: 6-31G(d) (6D, 7F)
 There are    63 symmetry adapted cartesian basis functions of A'  symmetry.
 There are    24 symmetry adapted cartesian basis functions of A"  symmetry.
 There are    63 symmetry adapted basis functions of A'  symmetry.
 There are    24 symmetry adapted basis functions of A"  symmetry.
    87 basis functions,   164 primitive gaussians,    87 cartesian basis functions
    20 alpha electrons       20 beta electrons
       nuclear repulsion energy       177.7119443869 Hartrees.
 NAtoms=   11 NActive=   11 NUniq=    9 SFac= 1.49D+00 NAtFMM=   60 NAOKFM=F Big=F
 Integral buffers will be    131072 words long.
 Raffenetti 2 integral format.
 Two-electron integral symmetry is turned on.
 One-electron integrals computed using PRISM.
 NBasis=    87 RedAO= T EigKep=  3.61D-03  NBF=    63    24
 NBsUse=    87 1.00D-06 EigRej= -1.00D+00 NBFU=    63    24
 Initial guess from the checkpoint file:  "CT_CT_C_OH_version_1.chk"
 B after Tr=    -0.000000    0.000000   -0.000000
         Rot=    0.970348    0.000000    0.000000   -0.241714 Ang= -27.98 deg.
 Initial guess orbital symmetries:
 Alpha Orbitals:
       Occupied  (A') (A') (A') (A') (A') (A') (A') (A') (A') (A')
                 (A") (A') (A') (A') (A") (A') (A") (A') (A') (A")
       Virtual   (A") (A') (A') (A") (A') (A') (A') (A") (A') (A')
                 (A') (A") (A') (A') (A') (A') (A") (A') (A") (A')
                 (A') (A') (A") (A') (A') (A") (A') (A") (A') (A")
                 (A') (A') (A') (A') (A") (A") (A') (A') (A') (A')
                 (A") (A') (A") (A') (A") (A') (A') (A') (A") (A')
                 (A') (A") (A') (A") (A") (A') (A') (A") (A') (A')
                 (A') (A') (A') (A') (A') (A') (A')
 Beta  Orbitals:
       Occupied  (A') (A') (A') (A') (A') (A') (A') (A') (A') (A')
                 (A") (A') (A') (A') (A") (A') (A") (A') (A') (A")
       Virtual   (A") (A') (A') (A") (A') (A') (A') (A") (A') (A')
                 (A') (A") (A') (A') (A') (A') (A") (A') (A") (A')
                 (A') (A') (A") (A') (A') (A") (A') (A") (A') (A")
                 (A') (A') (A') (A') (A") (A") (A') (A') (A') (A')
                 (A") (A') (A") (A') (A") (A') (A') (A') (A") (A')
                 (A') (A") (A') (A") (A") (A') (A') (A") (A') (A')
                 (A') (A') (A') (A') (A') (A') (A')
 Initial guess <Sx>= 0.0000 <Sy>= 0.0000 <Sz>= 0.0000 <S**2>= 0.0000 S= 0.0000
 ExpMin= 1.61D-01 ExpMax= 5.48D+03 ExpMxC= 8.25D+02 IAcc=3 IRadAn=         5 AccDes= 0.00D+00
 Harris functional with IExCor=  205 and IRadAn=       5 diagonalized for initial guess.
 HarFok:  IExCor=  205 AccDes= 0.00D+00 IRadAn=         5 IDoV= 1 UseB2=F ITyADJ=14
 ICtDFT=  3500011 ScaDFX=  1.000000  1.000000  1.000000  1.000000
 FoFCou: FMM=F IPFlag=           0 FMFlag=      100000 FMFlg1=           0
         NFxFlg=           0 DoJE=T BraDBF=F KetDBF=T FulRan=T
         wScrn=  0.000000 ICntrl=       500 IOpCl=  0 I1Cent=   200000004 NGrid=           0
         NMat0=    1 NMatS0=      1 NMatT0=    0 NMatD0=    1 NMtDS0=    0 NMtDT0=    0
 Petite list used in FoFCou.
 Keep R1 and R2 ints in memory in symmetry-blocked form, NReq=11490485.
 Requested convergence on RMS density matrix=1.00D-08 within1000 cycles.
 Requested convergence on MAX density matrix=1.00D-06.
 Requested convergence on             energy=1.00D-06.
 No special actions if energy rises.
 SCF Done:  E(UHF) =  -266.801443816     A.U. after   13 cycles
            NFock= 13  Conv=0.19D-08     -V/T= 2.0015
 <Sx>= 0.0000 <Sy>= 0.0000 <Sz>= 0.0000 <S**2>=-0.0000 S=-0.0000
 <L.S>= 0.000000000000E+00
 Annihilation of the first spin contaminant:
 S**2 before annihilation    -0.0000,   after     0.0000
 Calling FoFJK, ICntrl=      2127 FMM=F ISym2X=1 I1Cent= 0 IOpClX= 1 NMat=1 NMatS=1 NMatT=0.
 ***** Axes restored to original set *****
 -------------------------------------------------------------------
 Center     Atomic                   Forces (Hartrees/Bohr)
 Number     Number              X              Y              Z
 -------------------------------------------------------------------
      1        6           0.117609336   -0.107248552    0.000000000
      2        6           0.028169159    0.013146114    0.000000000
      3        6           0.007646192    0.009944316    0.000000000
      4        8          -0.079456689    0.125576564    0.000000000
      5        8          -0.010899753   -0.032825221   -0.000000000
      6        1          -0.002841323   -0.030855515   -0.029490703
      7        1          -0.002841323   -0.030855515    0.029490703
      8        1           0.020583163    0.035222138    0.000000000
      9        1          -0.025139245    0.007728525   -0.031526973
     10        1          -0.025139245    0.007728525    0.031526973
     11        1          -0.027690274    0.002438622   -0.000000000
 -------------------------------------------------------------------
 Cartesian Forces:  Max     0.125576564 RMS     0.042356705

 GradGradGradGradGradGradGradGradGradGradGradGradGradGradGradGradGradGrad
 Berny optimization.
 Using GEDIIS/GDIIS optimizer.
 FormGI is forming the generalized inverse of G from B-inverse, IUseBI=4.
 Internal  Forces:  Max     0.148579622 RMS     0.030058631
 Search for a local minimum.
 Step number   2 out of a maximum of   53 on scan point     1 out of    37
 All quantities printed in internal units (Hartrees-Bohrs-Radians)
 Mixed Optimization -- RFO/linear search
 Update second derivatives using D2CorX and points    1    2
 DE= -7.84D-02 DEPred=-7.88D-02 R= 9.95D-01
 TightC=F SS=  1.41D+00  RLast= 3.04D-01 DXNew= 5.0454D-01 9.1218D-01
 Trust test= 9.95D-01 RLast= 3.04D-01 DXMaxT set to 5.05D-01
 ITU=  1  0
 Use linear search instead of GDIIS.
     Eigenvalues ---    0.00890   0.01693   0.02089   0.03471   0.06189
     Eigenvalues ---    0.06783   0.06829   0.10865   0.12730   0.15999
     Eigenvalues ---    0.16000   0.16000   0.16427   0.22208   0.24384
     Eigenvalues ---    0.25027   0.32234   0.36505   0.45630   0.46852
     Eigenvalues ---    0.47677   0.47691   0.47693   0.47695   0.47695
     Eigenvalues ---    0.587471000.000001000.000001000.000001000.00000
     Eigenvalues --- 1000.000001000.000001000.000001000.000001000.00000
     Eigenvalues --- 1000.000001000.000001000.000001000.000001000.00000
     Eigenvalues --- 1000.000001000.000001000.00000
 RFO step:  Lambda=-1.52220025D-02 EMin= 8.89655867D-03
 Quartic linear search produced a step of  1.22459.
 Iteration  1 RMS(Cart)=  0.07119847 RMS(Int)=  0.02723257
 Iteration  2 RMS(Cart)=  0.02646118 RMS(Int)=  0.00050034
 Iteration  3 RMS(Cart)=  0.00003286 RMS(Int)=  0.00049974
 Iteration  4 RMS(Cart)=  0.00000000 RMS(Int)=  0.00049974
 Iteration  1 RMS(Cart)=  0.00000000 RMS(Int)=  0.00000000
 ClnCor:  largest displacement from symmetrization is 1.56D-09 for atom     4.
 Variable       Old X    -DE/DX   Delta X   Delta X   Delta X     New X
                                 (Linear)    (Quad)   (Total)
    R1        2.82307  -0.00051  -0.01411   0.03487   0.02076   2.84383
    R2        2.45881  -0.14858  -0.22869  -0.14908  -0.37777   2.08104
    R3        2.56748  -0.04596  -0.09555   0.01366  -0.08190   2.48558
    R4        2.76997   0.06367   0.15235  -0.06702   0.08533   2.85530
    R5        1.95437   0.04039   0.07920  -0.00594   0.07326   2.02763
    R6        1.95437   0.04039   0.07920  -0.00594   0.07326   2.02763
    R7        1.95552   0.04019   0.08068  -0.01033   0.07034   2.02587
    R8        1.95427   0.04070   0.07913  -0.00436   0.07477   2.02904
    R9        1.95427   0.04070   0.07913  -0.00436   0.07477   2.02904
   R10        1.85054  -0.02745  -0.04798  -0.00990  -0.05787   1.79267
    A1        2.11101   0.00782   0.02033   0.00435   0.02468   2.13568
    A2        2.12030  -0.02212  -0.04132  -0.06091  -0.10223   2.01807
    A3        2.05188   0.01430   0.02099   0.05656   0.07755   2.12943
    A4        2.07506  -0.00805  -0.02369   0.00470  -0.01847   2.05659
    A5        1.87263  -0.00561  -0.02901   0.01960  -0.00907   1.86356
    A6        1.87263  -0.00561  -0.02901   0.01960  -0.00907   1.86356
    A7        1.87500   0.01214   0.05061  -0.02196   0.02799   1.90300
    A8        1.87500   0.01214   0.05061  -0.02196   0.02799   1.90300
    A9        1.88687  -0.00530  -0.01902  -0.00022  -0.02167   1.86520
   A10        1.93008   0.00741   0.03385  -0.02986   0.00366   1.93374
   A11        1.92043   0.00477   0.02201  -0.02071   0.00104   1.92147
   A12        1.92043   0.00477   0.02201  -0.02071   0.00104   1.92147
   A13        1.89621  -0.00611  -0.02761   0.02709  -0.00085   1.89536
   A14        1.89621  -0.00611  -0.02761   0.02709  -0.00085   1.89536
   A15        1.89992  -0.00519  -0.02305   0.01900  -0.00424   1.89568
   A16        1.86887  -0.00806  -0.04106   0.05027   0.00921   1.87808
    D1        3.14159  -0.00000   0.00000  -0.00000   0.00000   3.14159
    D2       -1.01203   0.00587   0.02663  -0.00964   0.01683  -0.99520
    D3        1.01203  -0.00587  -0.02663   0.00964  -0.01683   0.99520
    D4        0.00000   0.00000   0.00000   0.00000   0.00000   0.00000
    D5        2.12956   0.00587   0.02663  -0.00964   0.01683   2.14639
    D6       -2.12956  -0.00587  -0.02663   0.00964  -0.01683  -2.14639
    D7        3.14159  -0.00000   0.00000  -0.00000   0.00000   3.14159
    D8        0.00000  -0.00000   0.00000   0.00000   0.00000   0.00000
    D9        0.00000   0.00000   0.00000  -0.00000   0.00000   0.00000
   D10        2.09490   0.00020   0.00062   0.00130   0.00196   2.09686
   D11       -2.09490  -0.00020  -0.00062  -0.00130  -0.00196  -2.09686
   D12       -2.12837   0.00303   0.01254  -0.01118   0.00205  -2.12632
   D13       -0.03347   0.00323   0.01316  -0.00988   0.00401  -0.02946
   D14        2.05991   0.00283   0.01192  -0.01249   0.00009   2.06000
   D15        2.12837  -0.00303  -0.01254   0.01118  -0.00205   2.12632
   D16       -2.05991  -0.00283  -0.01192   0.01249  -0.00009  -2.06000
   D17        0.03347  -0.00323  -0.01316   0.00988  -0.00401   0.02946
         Item               Value     Threshold  Converged?
 Maximum Force            0.148580     0.000450     NO 
 RMS     Force            0.030414     0.000300     NO 
 Maximum Displacement     0.215350     0.001800     NO 
 RMS     Displacement     0.080466     0.001200     NO 
 Predicted change in Energy=-4.949367D-02
 GradGradGradGradGradGradGradGradGradGradGradGradGradGradGradGradGradGrad

                          Input orientation:                          
 ---------------------------------------------------------------------
 Center     Atomic      Atomic             Coordinates (Angstroms)
 Number     Number       Type             X           Y           Z
 ---------------------------------------------------------------------
      1          6           0        0.052233   -0.091330    0.000000
      2          6           0       -1.452618   -0.080274    0.000000
      3          6           0       -2.148267    1.261018    0.000000
      4          8           0        0.634901   -1.025798    0.000000
      5          8           0        0.629817    1.090381    0.000000
      6          1           0       -1.766381   -0.637192   -0.861785
      7          1           0       -1.766381   -0.637192    0.861785
      8          1           0       -1.433830    2.060302    0.000000
      9          1           0       -2.767576    1.355335   -0.872031
     10          1           0       -2.767576    1.355335    0.872031
     11          1           0        1.568177    0.951115    0.000000
 ---------------------------------------------------------------------
                    Distance matrix (angstroms):
                    1          2          3          4          5
     1  C    0.000000
     2  C    1.504892   0.000000
     3  C    2.582836   1.510957   0.000000
     4  O    1.101241   2.291670   3.602159   0.000000
     5  O    1.315311   2.388926   2.783319   2.116185   0.000000
     6  H    2.085186   1.072976   2.119365   2.580668   3.077165
     7  H    2.085186   1.072976   2.119365   2.580668   3.077165
     8  H    2.614938   2.140658   1.072042   3.715327   2.280216
     9  H    3.287035   2.133196   1.073721   4.243475   3.517515
    10  H    3.287035   2.133196   1.073721   4.243475   3.517515
    11  H    1.839776   3.192016   3.729342   2.186136   0.948639
                    6          7          8          9         10
     6  H    0.000000
     7  H    1.723570   0.000000
     8  H    2.851269   2.851269   0.000000
     9  H    2.229945   2.824654   1.742496   0.000000
    10  H    2.824654   2.229945   1.742496   1.744062   0.000000
    11  H    3.792713   3.792713   3.200366   4.441011   4.441011
                   11
    11  H    0.000000
 Stoichiometry    C3H6O2
 Framework group  CS[SG(C3H2O2),X(H4)]
 Deg. of freedom    17
 Full point group                 CS      NOp   2
 Largest Abelian subgroup         CS      NOp   2
 Largest concise Abelian subgroup CS      NOp   2
                         Standard orientation:                         
 ---------------------------------------------------------------------
 Center     Atomic      Atomic             Coordinates (Angstroms)
 Number     Number       Type             X           Y           Z
 ---------------------------------------------------------------------
      1          6           0        0.000000   -0.671917    0.000000
      2          6           0        0.839360    0.577153    0.000000
      3          6           0        0.123837    1.907949    0.000000
      4          8           0        0.443235   -1.680021    0.000000
      5          8           0       -1.301622   -0.482643    0.000000
      6          1           0        1.476221    0.522276    0.861785
      7          1           0        1.476221    0.522276   -0.861785
      8          1           0       -0.939106    1.768572    0.000000
      9          1           0        0.395131    2.472608    0.872031
     10          1           0        0.395131    2.472608   -0.872031
     11          1           0       -1.715686   -1.336145    0.000000
 ---------------------------------------------------------------------
 Rotational constants (GHZ):          10.3451177           4.0795325           3.0321399
 Standard basis: 6-31G(d) (6D, 7F)
 There are    63 symmetry adapted cartesian basis functions of A'  symmetry.
 There are    24 symmetry adapted cartesian basis functions of A"  symmetry.
 There are    63 symmetry adapted basis functions of A'  symmetry.
 There are    24 symmetry adapted basis functions of A"  symmetry.
    87 basis functions,   164 primitive gaussians,    87 cartesian basis functions
    20 alpha electrons       20 beta electrons
       nuclear repulsion energy       183.8819318335 Hartrees.
 NAtoms=   11 NActive=   11 NUniq=    9 SFac= 1.49D+00 NAtFMM=   60 NAOKFM=F Big=F
 Integral buffers will be    131072 words long.
 Raffenetti 2 integral format.
 Two-electron integral symmetry is turned on.
 One-electron integrals computed using PRISM.
 NBasis=    87 RedAO= T EigKep=  3.26D-03  NBF=    63    24
 NBsUse=    87 1.00D-06 EigRej= -1.00D+00 NBFU=    63    24
 Initial guess from the checkpoint file:  "CT_CT_C_OH_version_1.chk"
 B after Tr=    -0.000000    0.000000    0.000000
         Rot=    0.999721    0.000000    0.000000    0.023620 Ang=   2.71 deg.
 Initial guess orbital symmetries:
 Alpha Orbitals:
       Occupied  (A') (A') (A') (A') (A') (A') (A') (A') (A') (A')
                 (A') (A") (A') (A") (A') (A') (A') (A") (A") (A')
       Virtual   (A") (A') (A') (A") (A') (A') (A") (A') (A') (A')
                 (A') (A") (A') (A') (A') (A") (A') (A') (A") (A')
                 (A') (A') (A") (A') (A') (A') (A") (A") (A') (A')
                 (A") (A') (A') (A') (A") (A") (A') (A') (A') (A")
                 (A') (A') (A") (A') (A") (A') (A') (A') (A") (A')
                 (A") (A') (A') (A") (A") (A') (A') (A") (A') (A')
                 (A') (A') (A') (A') (A') (A') (A')
 Beta  Orbitals:
       Occupied  (A') (A') (A') (A') (A') (A') (A') (A') (A') (A')
                 (A') (A") (A') (A") (A') (A') (A') (A") (A") (A')
       Virtual   (A") (A') (A') (A") (A') (A') (A") (A') (A') (A')
                 (A') (A") (A') (A') (A') (A") (A') (A') (A") (A')
                 (A') (A') (A") (A') (A') (A') (A") (A") (A') (A')
                 (A") (A') (A') (A') (A") (A") (A') (A') (A') (A")
                 (A') (A') (A") (A') (A") (A') (A') (A') (A") (A')
                 (A") (A') (A') (A") (A") (A') (A') (A") (A') (A')
                 (A') (A') (A') (A') (A') (A') (A')
 Initial guess <Sx>= 0.0000 <Sy>= 0.0000 <Sz>= 0.0000 <S**2>= 0.0000 S= 0.0000
 ExpMin= 1.61D-01 ExpMax= 5.48D+03 ExpMxC= 8.25D+02 IAcc=3 IRadAn=         5 AccDes= 0.00D+00
 Harris functional with IExCor=  205 and IRadAn=       5 diagonalized for initial guess.
 HarFok:  IExCor=  205 AccDes= 0.00D+00 IRadAn=         5 IDoV= 1 UseB2=F ITyADJ=14
 ICtDFT=  3500011 ScaDFX=  1.000000  1.000000  1.000000  1.000000
 FoFCou: FMM=F IPFlag=           0 FMFlag=      100000 FMFlg1=           0
         NFxFlg=           0 DoJE=T BraDBF=F KetDBF=T FulRan=T
         wScrn=  0.000000 ICntrl=       500 IOpCl=  0 I1Cent=   200000004 NGrid=           0
         NMat0=    1 NMatS0=      1 NMatT0=    0 NMatD0=    1 NMtDS0=    0 NMtDT0=    0
 Petite list used in FoFCou.
 Keep R1 and R2 ints in memory in symmetry-blocked form, NReq=11490485.
 Requested convergence on RMS density matrix=1.00D-08 within1000 cycles.
 Requested convergence on MAX density matrix=1.00D-06.
 Requested convergence on             energy=1.00D-06.
 No special actions if energy rises.
 SCF Done:  E(UHF) =  -266.818259841     A.U. after   13 cycles
            NFock= 13  Conv=0.43D-08     -V/T= 1.9990
 <Sx>= 0.0000 <Sy>= 0.0000 <Sz>= 0.0000 <S**2>= 0.0000 S= 0.0000
 <L.S>= 0.000000000000E+00
 Annihilation of the first spin contaminant:
 S**2 before annihilation     0.0000,   after    -0.0000
 Calling FoFJK, ICntrl=      2127 FMM=F ISym2X=1 I1Cent= 0 IOpClX= 1 NMat=1 NMatS=1 NMatT=0.
 ***** Axes restored to original set *****
 -------------------------------------------------------------------
 Center     Atomic                   Forces (Hartrees/Bohr)
 Number     Number              X              Y              Z
 -------------------------------------------------------------------
      1        6          -0.119387735    0.157895784   -0.000000000
      2        6          -0.005211283    0.006858331    0.000000000
      3        6          -0.000138759    0.006131613    0.000000000
      4        8           0.123700820   -0.200915641    0.000000000
      5        8           0.004716629    0.031962406    0.000000000
      6        1           0.001811094   -0.009380715   -0.004750941
      7        1           0.001811094   -0.009380715    0.004750941
      8        1           0.000654987    0.007699117   -0.000000000
      9        1          -0.005709268    0.004364099   -0.004590999
     10        1          -0.005709268    0.004364099    0.004590999
     11        1           0.003461688    0.000401622   -0.000000000
 -------------------------------------------------------------------
 Cartesian Forces:  Max     0.200915641 RMS     0.054063413

 GradGradGradGradGradGradGradGradGradGradGradGradGradGradGradGradGradGrad
 Berny optimization.
 Using GEDIIS/GDIIS optimizer.
 FormGI is forming the generalized inverse of G from B-inverse, IUseBI=4.
 Internal  Forces:  Max     0.235938974 RMS     0.036821337
 Search for a local minimum.
 Step number   3 out of a maximum of   53 on scan point     1 out of    37
 All quantities printed in internal units (Hartrees-Bohrs-Radians)
 Mixed Optimization -- RFO/linear search
 Update second derivatives using D2CorX and points    2    3
 DE= -1.68D-02 DEPred=-4.95D-02 R= 3.40D-01
 Trust test= 3.40D-01 RLast= 4.56D-01 DXMaxT set to 5.05D-01
 ITU=  0  1  0
 Use linear search instead of GDIIS.
     Eigenvalues ---    0.00896   0.01693   0.02089   0.03515   0.06142
     Eigenvalues ---    0.06753   0.06822   0.10733   0.12635   0.15972
     Eigenvalues ---    0.16000   0.16000   0.16515   0.22123   0.23478
     Eigenvalues ---    0.25030   0.32154   0.45066   0.45946   0.47613
     Eigenvalues ---    0.47691   0.47692   0.47694   0.47695   0.51762
     Eigenvalues ---    1.027711000.000001000.000001000.000001000.00000
     Eigenvalues --- 1000.000001000.000001000.000001000.000001000.00000
     Eigenvalues --- 1000.000001000.000001000.000001000.000001000.00000
     Eigenvalues --- 1000.000001000.000001000.00000
 RFO step:  Lambda=-2.50277311D-02 EMin= 8.96017015D-03
 Quartic linear search produced a step of -0.36310.
 Iteration  1 RMS(Cart)=  0.06290002 RMS(Int)=  0.00119826
 Iteration  2 RMS(Cart)=  0.00147315 RMS(Int)=  0.00052334
 Iteration  3 RMS(Cart)=  0.00000067 RMS(Int)=  0.00052334
 Iteration  1 RMS(Cart)=  0.00000000 RMS(Int)=  0.00000000
 ClnCor:  largest displacement from symmetrization is 2.15D-10 for atom    11.
 Variable       Old X    -DE/DX   Delta X   Delta X   Delta X     New X
                                 (Linear)    (Quad)   (Total)
    R1        2.84383   0.01257  -0.00754   0.03801   0.03047   2.87431
    R2        2.08104   0.23594   0.13717   0.05118   0.18835   2.26939
    R3        2.48558   0.03267   0.02974  -0.01315   0.01658   2.50216
    R4        2.85530   0.02505  -0.03098   0.09116   0.06018   2.91548
    R5        2.02763   0.00816  -0.02660   0.05938   0.03278   2.06041
    R6        2.02763   0.00816  -0.02660   0.05938   0.03278   2.06041
    R7        2.02587   0.00618  -0.02554   0.05492   0.02938   2.05524
    R8        2.02904   0.00740  -0.02715   0.05945   0.03230   2.06134
    R9        2.02904   0.00740  -0.02715   0.05945   0.03230   2.06134
   R10        1.79267   0.00337   0.02101  -0.03463  -0.01362   1.77905
    A1        2.13568   0.00437  -0.00896   0.03213   0.02317   2.15886
    A2        2.01807  -0.01153   0.03712  -0.11495  -0.07783   1.94024
    A3        2.12943   0.00716  -0.02816   0.08282   0.05466   2.18409
    A4        2.05659   0.00457   0.00671  -0.00187   0.00501   2.06161
    A5        1.86356  -0.00540   0.00329  -0.04384  -0.04107   1.82249
    A6        1.86356  -0.00540   0.00329  -0.04384  -0.04107   1.82249
    A7        1.90300   0.00368  -0.01016   0.06535   0.05495   1.95795
    A8        1.90300   0.00368  -0.01016   0.06535   0.05495   1.95795
    A9        1.86520  -0.00201   0.00787  -0.05096  -0.04576   1.81945
   A10        1.93374   0.00485  -0.00133   0.02655   0.02496   1.95870
   A11        1.92147   0.00400  -0.00038   0.01737   0.01682   1.93829
   A12        1.92147   0.00400  -0.00038   0.01737   0.01682   1.93829
   A13        1.89536  -0.00442   0.00031  -0.01898  -0.01891   1.87645
   A14        1.89536  -0.00442   0.00031  -0.01898  -0.01891   1.87645
   A15        1.89568  -0.00441   0.00154  -0.02530  -0.02384   1.87184
   A16        1.87808   0.00162  -0.00335   0.00862   0.00528   1.88336
    D1        3.14159   0.00000   0.00000   0.00000   0.00000   3.14159
    D2       -0.99520   0.00365  -0.00611   0.04949   0.04245  -0.95275
    D3        0.99520  -0.00365   0.00611  -0.04949  -0.04245   0.95275
    D4        0.00000   0.00000   0.00000   0.00000   0.00000   0.00000
    D5        2.14639   0.00365  -0.00611   0.04949   0.04245   2.18884
    D6       -2.14639  -0.00365   0.00611  -0.04949  -0.04245  -2.18884
    D7        3.14159   0.00000   0.00000   0.00000   0.00000   3.14159
    D8        0.00000  -0.00000   0.00000   0.00000   0.00000   0.00000
    D9        0.00000  -0.00000   0.00000  -0.00000   0.00000   0.00000
   D10        2.09686   0.00021  -0.00071   0.00471   0.00404   2.10091
   D11       -2.09686  -0.00021   0.00071  -0.00471  -0.00404  -2.10091
   D12       -2.12632   0.00085  -0.00075   0.00587   0.00533  -2.12099
   D13       -0.02946   0.00105  -0.00146   0.01058   0.00937  -0.02008
   D14        2.06000   0.00064  -0.00003   0.00116   0.00129   2.06129
   D15        2.12632  -0.00085   0.00075  -0.00587  -0.00533   2.12099
   D16       -2.06000  -0.00064   0.00003  -0.00116  -0.00129  -2.06129
   D17        0.02946  -0.00105   0.00146  -0.01058  -0.00937   0.02008
         Item               Value     Threshold  Converged?
 Maximum Force            0.235939     0.000450     NO 
 RMS     Force            0.037257     0.000300     NO 
 Maximum Displacement     0.223083     0.001800     NO 
 RMS     Displacement     0.063097     0.001200     NO 
 Predicted change in Energy=-2.835667D-02
 GradGradGradGradGradGradGradGradGradGradGradGradGradGradGradGradGradGrad

                          Input orientation:                          
 ---------------------------------------------------------------------
 Center     Atomic      Atomic             Coordinates (Angstroms)
 Number     Number       Type             X           Y           Z
 ---------------------------------------------------------------------
      1          6           0        0.065401   -0.127206    0.000000
      2          6           0       -1.455071   -0.086522    0.000000
      3          6           0       -2.145602    1.293118    0.000000
      4          8           0        0.704641   -1.143848    0.000000
      5          8           0        0.576384    1.094310    0.000000
      6          1           0       -1.742882   -0.690911   -0.860628
      7          1           0       -1.742882   -0.690911    0.860628
      8          1           0       -1.429420    2.111611    0.000000
      9          1           0       -2.781297    1.413198   -0.878265
     10          1           0       -2.781297    1.413198    0.878265
     11          1           0        1.514525    1.015663    0.000000
 ---------------------------------------------------------------------
                    Distance matrix (angstroms):
                    1          2          3          4          5
     1  C    0.000000
     2  C    1.521017   0.000000
     3  C    2.627900   1.542803   0.000000
     4  O    1.200912   2.404641   3.750026   0.000000
     5  O    1.324087   2.349718   2.729237   2.241831   0.000000
     6  H    2.080465   1.090322   2.199827   2.633668   3.050687
     7  H    2.080465   1.090322   2.199827   2.633668   3.050687
     8  H    2.691986   2.198283   1.087587   3.892586   2.249033
     9  H    3.353787   2.186181   1.090815   4.411531   3.485263
    10  H    3.353787   2.186181   1.090815   4.411531   3.485263
    11  H    1.845565   3.167541   3.670629   2.306383   0.941432
                    6          7          8          9         10
     6  H    0.000000
     7  H    1.721257   0.000000
     8  H    2.948401   2.948401   0.000000
     9  H    2.346464   2.920502   1.756901   0.000000
    10  H    2.920502   2.346464   1.756901   1.756531   0.000000
    11  H    3.776742   3.776742   3.141323   4.402667   4.402667
                   11
    11  H    0.000000
 Stoichiometry    C3H6O2
 Framework group  CS[SG(C3H2O2),X(H4)]
 Deg. of freedom    17
 Full point group                 CS      NOp   2
 Largest Abelian subgroup         CS      NOp   2
 Largest concise Abelian subgroup CS      NOp   2
                         Standard orientation:                         
 ---------------------------------------------------------------------
 Center     Atomic      Atomic             Coordinates (Angstroms)
 Number     Number       Type             X           Y           Z
 ---------------------------------------------------------------------
      1          6           0        0.000000   -0.687353    0.000000
      2          6           0        0.837099    0.582591    0.000000
      3          6           0        0.101238    1.938596    0.000000
      4          8           0        0.467598   -1.793491    0.000000
      5          8           0       -1.294068   -0.407007    0.000000
      6          1           0        1.497414    0.472563    0.860628
      7          1           0        1.497414    0.472563   -0.860628
      8          1           0       -0.979860    1.819969    0.000000
      9          1           0        0.366713    2.528554    0.878265
     10          1           0        0.366713    2.528554   -0.878265
     11          1           0       -1.766661   -1.221224    0.000000
 ---------------------------------------------------------------------
 Rotational constants (GHZ):          10.0733091           3.8824145           2.9003770
 Standard basis: 6-31G(d) (6D, 7F)
 There are    63 symmetry adapted cartesian basis functions of A'  symmetry.
 There are    24 symmetry adapted cartesian basis functions of A"  symmetry.
 There are    63 symmetry adapted basis functions of A'  symmetry.
 There are    24 symmetry adapted basis functions of A"  symmetry.
    87 basis functions,   164 primitive gaussians,    87 cartesian basis functions
    20 alpha electrons       20 beta electrons
       nuclear repulsion energy       179.2437475718 Hartrees.
 NAtoms=   11 NActive=   11 NUniq=    9 SFac= 1.49D+00 NAtFMM=   60 NAOKFM=F Big=F
 Integral buffers will be    131072 words long.
 Raffenetti 2 integral format.
 Two-electron integral symmetry is turned on.
 One-electron integrals computed using PRISM.
 NBasis=    87 RedAO= T EigKep=  3.59D-03  NBF=    63    24
 NBsUse=    87 1.00D-06 EigRej= -1.00D+00 NBFU=    63    24
 Initial guess from the checkpoint file:  "CT_CT_C_OH_version_1.chk"
 B after Tr=     0.000000   -0.000000    0.000000
         Rot=    0.999993    0.000000    0.000000    0.003764 Ang=   0.43 deg.
 Initial guess orbital symmetries:
 Alpha Orbitals:
       Occupied  (A') (A') (A') (A') (A') (A') (A') (A') (A') (A')
                 (A') (A') (A") (A") (A') (A') (A') (A") (A") (A')
       Virtual   (A") (A') (A') (A") (A') (A') (A") (A') (A') (A')
                 (A') (A") (A') (A') (A") (A') (A') (A') (A") (A')
                 (A') (A') (A") (A') (A') (A") (A') (A") (A') (A')
                 (A") (A') (A') (A') (A") (A") (A') (A') (A') (A")
                 (A') (A") (A') (A') (A") (A') (A') (A') (A") (A')
                 (A") (A') (A') (A") (A") (A') (A') (A") (A') (A')
                 (A') (A') (A') (A') (A') (A') (A')
 Beta  Orbitals:
       Occupied  (A') (A') (A') (A') (A') (A') (A') (A') (A') (A')
                 (A') (A') (A") (A") (A') (A') (A') (A") (A") (A')
       Virtual   (A") (A') (A') (A") (A') (A') (A") (A') (A') (A')
                 (A') (A") (A') (A') (A") (A') (A') (A') (A") (A')
                 (A') (A') (A") (A') (A') (A") (A') (A") (A') (A')
                 (A") (A') (A') (A') (A") (A") (A') (A') (A') (A")
                 (A') (A") (A') (A') (A") (A') (A') (A') (A") (A')
                 (A") (A') (A') (A") (A") (A') (A') (A") (A') (A')
                 (A') (A') (A') (A') (A') (A') (A')
 Initial guess <Sx>= 0.0000 <Sy>= 0.0000 <Sz>= 0.0000 <S**2>=-0.0000 S=-0.0000
 ExpMin= 1.61D-01 ExpMax= 5.48D+03 ExpMxC= 8.25D+02 IAcc=3 IRadAn=         5 AccDes= 0.00D+00
 Harris functional with IExCor=  205 and IRadAn=       5 diagonalized for initial guess.
 HarFok:  IExCor=  205 AccDes= 0.00D+00 IRadAn=         5 IDoV= 1 UseB2=F ITyADJ=14
 ICtDFT=  3500011 ScaDFX=  1.000000  1.000000  1.000000  1.000000
 FoFCou: FMM=F IPFlag=           0 FMFlag=      100000 FMFlg1=           0
         NFxFlg=           0 DoJE=T BraDBF=F KetDBF=T FulRan=T
         wScrn=  0.000000 ICntrl=       500 IOpCl=  0 I1Cent=   200000004 NGrid=           0
         NMat0=    1 NMatS0=      1 NMatT0=    0 NMatD0=    1 NMtDS0=    0 NMtDT0=    0
 Petite list used in FoFCou.
 Keep R1 and R2 ints in memory in symmetry-blocked form, NReq=11490485.
 Requested convergence on RMS density matrix=1.00D-08 within1000 cycles.
 Requested convergence on MAX density matrix=1.00D-06.
 Requested convergence on             energy=1.00D-06.
 No special actions if energy rises.
 SCF Done:  E(UHF) =  -266.836101098     A.U. after   12 cycles
            NFock= 12  Conv=0.60D-08     -V/T= 2.0020
 <Sx>= 0.0000 <Sy>= 0.0000 <Sz>= 0.0000 <S**2>=-0.0000 S=-0.0000
 <L.S>= 0.000000000000E+00
 Annihilation of the first spin contaminant:
 S**2 before annihilation    -0.0000,   after     0.0000
 Calling FoFJK, ICntrl=      2127 FMM=F ISym2X=1 I1Cent= 0 IOpClX= 1 NMat=1 NMatS=1 NMatT=0.
 ***** Axes restored to original set *****
 -------------------------------------------------------------------
 Center     Atomic                   Forces (Hartrees/Bohr)
 Number     Number              X              Y              Z
 -------------------------------------------------------------------
      1        6          -0.011686092   -0.013648201    0.000000000
      2        6           0.001759394   -0.011876027    0.000000000
      3        6          -0.002341274    0.002684880   -0.000000000
      4        8          -0.007945928    0.028145434   -0.000000000
      5        8           0.005930126   -0.006208840   -0.000000000
      6        1          -0.000893370    0.003771494    0.002216301
      7        1          -0.000893370    0.003771494   -0.002216301
      8        1          -0.004231352   -0.004895180   -0.000000000
      9        1           0.002922977   -0.001284937    0.003807141
     10        1           0.002922977   -0.001284937   -0.003807141
     11        1           0.014455912    0.000824820    0.000000000
 -------------------------------------------------------------------
 Cartesian Forces:  Max     0.028145434 RMS     0.007281048

 GradGradGradGradGradGradGradGradGradGradGradGradGradGradGradGradGradGrad
 Berny optimization.
 Using GEDIIS/GDIIS optimizer.
 FormGI is forming the generalized inverse of G from B-inverse, IUseBI=4.
 Internal  Forces:  Max     0.028056341 RMS     0.007476904
 Search for a local minimum.
 Step number   4 out of a maximum of   53 on scan point     1 out of    37
 All quantities printed in internal units (Hartrees-Bohrs-Radians)
 Mixed Optimization -- RFO/linear search
 Update second derivatives using D2CorX and points    2    3    4
 DE= -1.78D-02 DEPred=-2.84D-02 R= 6.29D-01
 TightC=F SS=  1.41D+00  RLast= 2.77D-01 DXNew= 8.4853D-01 8.3070D-01
 Trust test= 6.29D-01 RLast= 2.77D-01 DXMaxT set to 8.31D-01
 ITU=  1  0  1  0
 Use linear search instead of GDIIS.
     Eigenvalues ---    0.00901   0.01693   0.02089   0.03462   0.05880
     Eigenvalues ---    0.06539   0.06663   0.10841   0.12679   0.15747
     Eigenvalues ---    0.16000   0.16003   0.16621   0.21917   0.24910
     Eigenvalues ---    0.27613   0.31091   0.41688   0.46209   0.47565
     Eigenvalues ---    0.47691   0.47693   0.47695   0.47923   0.50215
     Eigenvalues ---    1.343181000.000001000.000001000.000001000.00000
     Eigenvalues --- 1000.000001000.000001000.000001000.000001000.00000
     Eigenvalues --- 1000.000001000.000001000.000001000.000001000.00000
     Eigenvalues --- 1000.000001000.000001000.00000
 RFO step:  Lambda=-4.25059635D-03 EMin= 9.00785292D-03
 Quartic linear search produced a step of -0.21058.
 Iteration  1 RMS(Cart)=  0.05618508 RMS(Int)=  0.00144498
 Iteration  2 RMS(Cart)=  0.00181489 RMS(Int)=  0.00007827
 Iteration  3 RMS(Cart)=  0.00000150 RMS(Int)=  0.00007827
 Iteration  4 RMS(Cart)=  0.00000000 RMS(Int)=  0.00007827
 Iteration  1 RMS(Cart)=  0.00000000 RMS(Int)=  0.00000000
 ClnCor:  largest displacement from symmetrization is 4.04D-10 for atom    11.
 Variable       Old X    -DE/DX   Delta X   Delta X   Delta X     New X
                                 (Linear)    (Quad)   (Total)
    R1        2.87431   0.00051  -0.00642  -0.00149  -0.00791   2.86639
    R2        2.26939  -0.02806  -0.03966   0.02374  -0.01592   2.25347
    R3        2.50216   0.00290  -0.00349   0.01169   0.00819   2.51036
    R4        2.91548  -0.00395  -0.01267  -0.00208  -0.01475   2.90072
    R5        2.06041  -0.00360  -0.00690  -0.00697  -0.01388   2.04653
    R6        2.06041  -0.00360  -0.00690  -0.00697  -0.01388   2.04653
    R7        2.05524  -0.00647  -0.00619  -0.01047  -0.01666   2.03859
    R8        2.06134  -0.00491  -0.00680  -0.00893  -0.01573   2.04561
[...]
    11  H    1.857227   3.200114   3.691393   2.253652   0.952576
                    6          7          8          9         10
     6  H    0.000000
     7  H    1.730627   0.000000
     8  H    2.528912   3.070393   0.000000
     9  H    2.489144   2.488617   1.755410   0.000000
    10  H    3.070318   2.529415   1.751052   1.755414   0.000000
    11  H    3.807994   3.807968   3.620451   4.761266   3.619155
                   11
    11  H    0.000000
 Stoichiometry    C3H6O2
 Framework group  C1[X(C3H6O2)]
 Deg. of freedom    27
 Full point group                 C1      NOp   1
 Largest Abelian subgroup         C1      NOp   1
 Largest concise Abelian subgroup C1      NOp   1
                         Standard orientation:                         
 ---------------------------------------------------------------------
 Center     Atomic      Atomic             Coordinates (Angstroms)
 Number     Number       Type             X           Y           Z
 ---------------------------------------------------------------------
      1          6           0       -0.655241   -0.099286   -0.000093
      2          6           0        0.703089   -0.762182   -0.000026
      3          6           0        1.913274    0.167282    0.000069
      4          8           0       -1.682590   -0.697136    0.000073
      5          8           0       -0.612336    1.229493   -0.000063
      6          1           0        0.715438   -1.417108    0.865199
      7          1           0        0.715303   -1.416896   -0.865428
      8          1           0        1.923560    0.804540    0.876024
      9          1           0        2.825263   -0.419950   -0.000915
     10          1           0        1.922538    0.805812   -0.875027
     11          1           0       -1.509426    1.549853    0.000366
 ---------------------------------------------------------------------
 Rotational constants (GHZ):          10.0458999           3.9583431           2.9404264

 **********************************************************************

            Population analysis using the SCF Density.

 **********************************************************************

 Orbital symmetries:
 Alpha Orbitals:
       Occupied  (A) (A) (A) (A) (A) (A) (A) (A) (A) (A) (A) (A)
                 (A) (A) (A) (A) (A) (A) (A) (A)
       Virtual   (A) (A) (A) (A) (A) (A) (A) (A) (A) (A) (A) (A)
                 (A) (A) (A) (A) (A) (A) (A) (A) (A) (A) (A) (A)
                 (A) (A) (A) (A) (A) (A) (A) (A) (A) (A) (A) (A)
                 (A) (A) (A) (A) (A) (A) (A) (A) (A) (A) (A) (A)
                 (A) (A) (A) (A) (A) (A) (A) (A) (A) (A) (A) (A)
                 (A) (A) (A) (A) (A) (A) (A)
 Beta  Orbitals:
       Occupied  (A) (A) (A) (A) (A) (A) (A) (A) (A) (A) (A) (A)
                 (A) (A) (A) (A) (A) (A) (A) (A)
       Virtual   (A) (A) (A) (A) (A) (A) (A) (A) (A) (A) (A) (A)
                 (A) (A) (A) (A) (A) (A) (A) (A) (A) (A) (A) (A)
                 (A) (A) (A) (A) (A) (A) (A) (A) (A) (A) (A) (A)
                 (A) (A) (A) (A) (A) (A) (A) (A) (A) (A) (A) (A)
                 (A) (A) (A) (A) (A) (A) (A) (A) (A) (A) (A) (A)
                 (A) (A) (A) (A) (A) (A) (A)
 The electronic state is 1-A.
 Alpha  occ. eigenvalues --  -20.61664 -20.54749 -11.38243 -11.24463 -11.22430
 Alpha  occ. eigenvalues --   -1.47680  -1.36516  -1.06616  -0.90890  -0.82427
 Alpha  occ. eigenvalues --   -0.70175  -0.67279  -0.66254  -0.59538  -0.58626
 Alpha  occ. eigenvalues --   -0.55465  -0.52321  -0.51760  -0.46982  -0.43995
 Alpha virt. eigenvalues --    0.19279   0.21967   0.25477   0.29353   0.30592
 Alpha virt. eigenvalues --    0.31385   0.35297   0.39152   0.43298   0.48433
 Alpha virt. eigenvalues --    0.55610   0.72287   0.74476   0.75805   0.77969
 Alpha virt. eigenvalues --    0.82871   0.90356   0.92717   0.96447   0.97243
 Alpha virt. eigenvalues --    1.04297   1.08056   1.12245   1.13901   1.15594
 Alpha virt. eigenvalues --    1.16450   1.19821   1.23447   1.24352   1.25420
 Alpha virt. eigenvalues --    1.26901   1.35065   1.37051   1.59443   1.60131
 Alpha virt. eigenvalues --    1.69571   1.75803   1.79927   1.82504   1.99218
 Alpha virt. eigenvalues --    2.05337   2.07891   2.08169   2.12224   2.18205
 Alpha virt. eigenvalues --    2.22338   2.24930   2.29918   2.33113   2.43150
 Alpha virt. eigenvalues --    2.59452   2.64228   2.65579   2.66284   2.78716
 Alpha virt. eigenvalues --    2.83916   2.90695   3.02473   3.10491   3.25134
 Alpha virt. eigenvalues --    3.38848   3.49771   4.27223   4.52150   4.56422
 Alpha virt. eigenvalues --    4.72765   4.96674
  Beta  occ. eigenvalues --  -20.61664 -20.54749 -11.38243 -11.24463 -11.22430
  Beta  occ. eigenvalues --   -1.47680  -1.36516  -1.06616  -0.90890  -0.82427
  Beta  occ. eigenvalues --   -0.70175  -0.67279  -0.66254  -0.59538  -0.58626
  Beta  occ. eigenvalues --   -0.55465  -0.52321  -0.51760  -0.46982  -0.43995
  Beta virt. eigenvalues --    0.19279   0.21967   0.25477   0.29353   0.30592
  Beta virt. eigenvalues --    0.31385   0.35297   0.39152   0.43298   0.48433
  Beta virt. eigenvalues --    0.55610   0.72287   0.74476   0.75805   0.77969
  Beta virt. eigenvalues --    0.82871   0.90356   0.92717   0.96447   0.97243
  Beta virt. eigenvalues --    1.04297   1.08056   1.12245   1.13901   1.15594
  Beta virt. eigenvalues --    1.16450   1.19821   1.23447   1.24352   1.25420
  Beta virt. eigenvalues --    1.26901   1.35065   1.37051   1.59443   1.60131
  Beta virt. eigenvalues --    1.69571   1.75803   1.79927   1.82504   1.99218
  Beta virt. eigenvalues --    2.05337   2.07891   2.08169   2.12224   2.18205
  Beta virt. eigenvalues --    2.22338   2.24930   2.29918   2.33113   2.43150
  Beta virt. eigenvalues --    2.59452   2.64228   2.65579   2.66284   2.78716
  Beta virt. eigenvalues --    2.83916   2.90695   3.02473   3.10491   3.25134
  Beta virt. eigenvalues --    3.38848   3.49771   4.27223   4.52150   4.56422
  Beta virt. eigenvalues --    4.72765   4.96674
          Condensed to atoms (all electrons):
               1          2          3          4          5          6
     1  C    4.094792   0.371408  -0.042936   0.603413   0.300949  -0.033982
     2  C    0.371408   5.236639   0.294476  -0.076338  -0.089018   0.392829
     3  C   -0.042936   0.294476   5.113675   0.002730  -0.001301  -0.034116
     4  O    0.603413  -0.076338   0.002730   8.116398  -0.091414   0.000211
     5  O    0.300949  -0.089018  -0.001301  -0.091414   8.323050   0.001773
     6  H   -0.033982   0.392829  -0.034116   0.000211   0.001773   0.486253
     7  H   -0.033999   0.392817  -0.034111   0.000211   0.001775  -0.020724
     8  H   -0.003149  -0.036233   0.395125  -0.000006   0.001520  -0.002119
     9  H    0.003540  -0.034649   0.391156  -0.000043   0.000098  -0.002852
    10  H   -0.003156  -0.036252   0.395131  -0.000006   0.001522   0.003490
    11  H   -0.009752   0.007978  -0.000420   0.008896   0.247658  -0.000220
               7          8          9         10         11
     1  C   -0.033999  -0.003149   0.003540  -0.003156  -0.009752
     2  C    0.392817  -0.036233  -0.034649  -0.036252   0.007978
     3  C   -0.034111   0.395125   0.391156   0.395131  -0.000420
     4  O    0.000211  -0.000006  -0.000043  -0.000006   0.008896
     5  O    0.001775   0.001520   0.000098   0.001522   0.247658
     6  H   -0.020724  -0.002119  -0.002852   0.003490  -0.000220
     7  H    0.486300   0.003489  -0.002862  -0.002111  -0.000220
     8  H    0.003489   0.515375  -0.026762  -0.025771  -0.000098
     9  H   -0.002862  -0.026762   0.530154  -0.026765   0.000010
    10  H   -0.002111  -0.025771  -0.026765   0.515364  -0.000098
    11  H   -0.000220  -0.000098   0.000010  -0.000098   0.280564
          Atomic-Atomic Spin Densities.
               1          2          3          4          5          6
     1  C    0.000000   0.000000   0.000000   0.000000   0.000000   0.000000
     2  C    0.000000   0.000000   0.000000   0.000000   0.000000   0.000000
     3  C    0.000000   0.000000   0.000000   0.000000   0.000000   0.000000
     4  O    0.000000   0.000000   0.000000   0.000000   0.000000   0.000000
     5  O    0.000000   0.000000   0.000000   0.000000   0.000000   0.000000
     6  H    0.000000   0.000000   0.000000   0.000000   0.000000   0.000000
     7  H    0.000000   0.000000   0.000000   0.000000   0.000000   0.000000
     8  H    0.000000   0.000000   0.000000   0.000000   0.000000   0.000000
     9  H    0.000000   0.000000   0.000000   0.000000   0.000000   0.000000
    10  H    0.000000   0.000000   0.000000   0.000000   0.000000   0.000000
    11  H    0.000000   0.000000   0.000000   0.000000   0.000000   0.000000
               7          8          9         10         11
     1  C    0.000000   0.000000   0.000000   0.000000   0.000000
     2  C    0.000000   0.000000   0.000000   0.000000   0.000000
     3  C    0.000000   0.000000   0.000000   0.000000   0.000000
     4  O    0.000000   0.000000   0.000000   0.000000   0.000000
     5  O    0.000000   0.000000   0.000000   0.000000   0.000000
     6  H    0.000000   0.000000   0.000000   0.000000   0.000000
     7  H    0.000000   0.000000   0.000000   0.000000   0.000000
     8  H    0.000000   0.000000   0.000000   0.000000   0.000000
     9  H    0.000000   0.000000   0.000000   0.000000   0.000000
    10  H    0.000000   0.000000   0.000000   0.000000   0.000000
    11  H    0.000000   0.000000   0.000000   0.000000   0.000000
 Mulliken charges and spin densities:
               1          2
     1  C    0.752873   0.000000
     2  C   -0.423657   0.000000
     3  C   -0.479408   0.000000
     4  O   -0.564051   0.000000
     5  O   -0.696611   0.000000
     6  H    0.209459   0.000000
     7  H    0.209436   0.000000
     8  H    0.178631   0.000000
     9  H    0.168976   0.000000
    10  H    0.178652   0.000000
    11  H    0.465701   0.000000
 Sum of Mulliken charges =  -0.00000   0.00000
 Mulliken charges and spin densities with hydrogens summed into heavy atoms:
               1          2
     1  C    0.752873   0.000000
     2  C   -0.004762   0.000000
     3  C    0.046850   0.000000
     4  O   -0.564051   0.000000
     5  O   -0.230910   0.000000
 Electronic spatial extent (au):  <R**2>=            433.8576
 Charge=             -0.0000 electrons
 Dipole moment (field-independent basis, Debye):
    X=              1.5784    Y=              0.9998    Z=              0.0004  Tot=              1.8684
 Quadrupole moment (field-independent basis, Debye-Ang):
   XX=            -32.1228   YY=            -30.1481   ZZ=            -29.1955
   XY=             -6.2864   XZ=             -0.0007   YZ=              0.0016
 Traceless Quadrupole moment (field-independent basis, Debye-Ang):
   XX=             -1.6340   YY=              0.3407   ZZ=              1.2933
   XY=             -6.2864   XZ=             -0.0007   YZ=              0.0016
 Octapole moment (field-independent basis, Debye-Ang**2):
  XXX=             -3.5801  YYY=              5.5863  ZZZ=              0.0016  XYY=             -5.4945
  XXY=             12.0059  XXZ=              0.0015  XZZ=             -2.9904  YZZ=              0.3717
  YYZ=              0.0020  XYZ=             -0.0020
 Hexadecapole moment (field-independent basis, Debye-Ang**3):
 XXXX=           -364.6478 YYYY=           -137.1470 ZZZZ=            -37.9889 XXXY=            -24.4890
 XXXZ=             -0.0058 YYYX=            -14.4064 YYYZ=              0.0021 ZZZX=              0.0026
 ZZZY=              0.0015 XXYY=            -74.8424 XXZZ=            -65.7360 YYZZ=            -28.4843
 XXYZ=              0.0068 YYXZ=             -0.0045 ZZXY=             -0.1387
 N-N= 1.800535690832D+02 E-N=-9.874374079664D+02  KE= 2.664042200412D+02
                          Isotropic Fermi Contact Couplings
        Atom                 a.u.       MegaHertz       Gauss      10(-4) cm-1
     1  C(13)              0.00000       0.00000       0.00000       0.00000
     2  C(13)              0.00000       0.00000       0.00000       0.00000
     3  C(13)              0.00000       0.00000       0.00000       0.00000
     4  O(17)              0.00000      -0.00000      -0.00000      -0.00000
     5  O(17)              0.00000      -0.00000      -0.00000      -0.00000
     6  H(1)               0.00000       0.00000       0.00000       0.00000
     7  H(1)               0.00000       0.00000       0.00000       0.00000
     8  H(1)               0.00000       0.00000       0.00000       0.00000
     9  H(1)               0.00000       0.00000       0.00000       0.00000
    10  H(1)               0.00000       0.00000       0.00000       0.00000
    11  H(1)               0.00000       0.00000       0.00000       0.00000
 --------------------------------------------------------
       Center         ----  Spin Dipole Couplings  ----
                      3XX-RR        3YY-RR        3ZZ-RR
 --------------------------------------------------------
     1   Atom        0.000000      0.000000      0.000000
     2   Atom        0.000000      0.000000      0.000000
     3   Atom        0.000000      0.000000      0.000000
     4   Atom        0.000000      0.000000      0.000000
     5   Atom        0.000000      0.000000      0.000000
     6   Atom        0.000000      0.000000      0.000000
     7   Atom        0.000000      0.000000      0.000000
     8   Atom        0.000000      0.000000      0.000000
     9   Atom        0.000000      0.000000      0.000000
    10   Atom        0.000000      0.000000      0.000000
    11   Atom        0.000000      0.000000      0.000000
 --------------------------------------------------------
                        XY            XZ            YZ
 --------------------------------------------------------
     1   Atom        0.000000      0.000000      0.000000
     2   Atom        0.000000      0.000000      0.000000
     3   Atom        0.000000      0.000000      0.000000
     4   Atom        0.000000      0.000000      0.000000
     5   Atom        0.000000      0.000000      0.000000
     6   Atom        0.000000      0.000000      0.000000
     7   Atom        0.000000      0.000000      0.000000
     8   Atom        0.000000      0.000000      0.000000
     9   Atom        0.000000      0.000000      0.000000
    10   Atom        0.000000      0.000000      0.000000
    11   Atom        0.000000      0.000000      0.000000
 --------------------------------------------------------


 ---------------------------------------------------------------------------------
              Anisotropic Spin Dipole Couplings in Principal Axis System
 ---------------------------------------------------------------------------------

       Atom             a.u.   MegaHertz   Gauss  10(-4) cm-1        Axes

              Baa     0.0000     0.000     0.000     0.000  1.0000  0.0000  0.0000
     1 C(13)  Bbb     0.0000     0.000     0.000     0.000 -0.0000  1.0000  0.0000
              Bcc     0.0000     0.000     0.000     0.000  0.0000  0.0000  1.0000
 
              Baa     0.0000     0.000     0.000     0.000  1.0000  0.0000  0.0000
     2 C(13)  Bbb     0.0000     0.000     0.000     0.000 -0.0000  1.0000  0.0000
              Bcc     0.0000     0.000     0.000     0.000  0.0000  0.0000  1.0000
 
              Baa     0.0000     0.000     0.000     0.000  1.0000  0.0000  0.0000
     3 C(13)  Bbb     0.0000     0.000     0.000     0.000 -0.0000  1.0000  0.0000
              Bcc     0.0000     0.000     0.000     0.000  0.0000  0.0000  1.0000
 
              Baa     0.0000    -0.000    -0.000    -0.000  1.0000  0.0000  0.0000
     4 O(17)  Bbb     0.0000    -0.000    -0.000    -0.000 -0.0000  1.0000  0.0000
              Bcc     0.0000    -0.000    -0.000    -0.000  0.0000  0.0000  1.0000
 
              Baa     0.0000    -0.000    -0.000    -0.000  1.0000  0.0000  0.0000
     5 O(17)  Bbb     0.0000    -0.000    -0.000    -0.000 -0.0000  1.0000  0.0000
              Bcc     0.0000    -0.000    -0.000    -0.000  0.0000  0.0000  1.0000
 
              Baa     0.0000     0.000     0.000     0.000  1.0000  0.0000  0.0000
     6 H(1)   Bbb     0.0000     0.000     0.000     0.000 -0.0000  1.0000  0.0000
              Bcc     0.0000     0.000     0.000     0.000  0.0000  0.0000  1.0000
 
              Baa     0.0000     0.000     0.000     0.000  1.0000  0.0000  0.0000
     7 H(1)   Bbb     0.0000     0.000     0.000     0.000 -0.0000  1.0000  0.0000
              Bcc     0.0000     0.000     0.000     0.000  0.0000  0.0000  1.0000
 
              Baa     0.0000     0.000     0.000     0.000  1.0000  0.0000  0.0000
     8 H(1)   Bbb     0.0000     0.000     0.000     0.000 -0.0000  1.0000  0.0000
              Bcc     0.0000     0.000     0.000     0.000  0.0000  0.0000  1.0000
 
              Baa     0.0000     0.000     0.000     0.000  1.0000  0.0000  0.0000
     9 H(1)   Bbb     0.0000     0.000     0.000     0.000 -0.0000  1.0000  0.0000
              Bcc     0.0000     0.000     0.000     0.000  0.0000  0.0000  1.0000
 
              Baa     0.0000     0.000     0.000     0.000  1.0000  0.0000  0.0000
    10 H(1)   Bbb     0.0000     0.000     0.000     0.000 -0.0000  1.0000  0.0000
              Bcc     0.0000     0.000     0.000     0.000  0.0000  0.0000  1.0000
 
              Baa     0.0000     0.000     0.000     0.000  1.0000  0.0000  0.0000
    11 H(1)   Bbb     0.0000     0.000     0.000     0.000 -0.0000  1.0000  0.0000
              Bcc     0.0000     0.000     0.000     0.000  0.0000  0.0000  1.0000
 

 ---------------------------------------------------------------------------------

 1\1\GINC-SFX3\Scan\UHF\6-31G(d)\C3H6O2\HF6839\26-Dec-2022\0\\# opt=mod
 redundant UHF/6-31G* SCF=(MaxCycle=1000) Geom=PrintInputOrient\\Dihedr
 al Scan at UHF/6-31G*\\0,1\C,0.0283938344,0.24770233,0.5809160104\C,-1
 .4760543351,0.3929970883,0.5850812399\C,-2.1218264854,0.8172577554,-0.
 7307580877\O,0.6639441214,-0.0756111889,1.5319236578\O,0.5976290801,0.
 5140694747,-0.5906277027\H,-1.8671414981,-0.5622104246,0.9202291179\H,
 -1.7051229459,1.0992981534,1.3765274109\H,-1.9216237946,0.1019766756,-
 1.5192959918\H,-3.1967838009,0.8882219622,-0.604282444\H,-1.7564260186
 ,1.7831204571,-1.0581584586\H,1.5375118445,0.3948777176,-0.4915547521\
 \Version=ES64L-G16RevB.01\State=1-A\HF=-266.83841,-266.8438028,-266.84
 39932,-266.8442621,-266.844545,-266.8447734,-266.8448908,-266.8448724,
 -266.8447397,-266.8445613,-266.8444283,-266.8444148,-266.8445554,-266.
 844843,-266.8452433,-266.8456973,-266.8461252,-266.8464348,-266.846547
 9,-266.8464348,-266.8461252,-266.8456971,-266.845243,-266.844843,-266.
 8445555,-266.8444148,-266.844428,-266.8445616,-266.8447399,-266.844872
 3,-266.844891,-266.8447737,-266.8445451,-266.8442623,-266.8439939,-266
 .843803,-266.843734\S2=0.,0.,0.,0.,0.,0.,0.,0.,0.,0.,0.,0.,0.,0.,0.,0.
 ,0.,0.,0.,0.,0.,0.,0.,0.,0.,0.,0.,0.,0.,0.,0.,0.,0.,0.,0.,0.,0.\S2-1=0
 .,0.,0.,0.,0.,0.,0.,0.,0.,0.,0.,0.,0.,0.,0.,0.,0.,0.,0.,0.,0.,0.,0.,0.
 ,0.,0.,0.,0.,0.,0.,0.,0.,0.,0.,0.,0.,0.\S2A=0.,0.,0.,0.,0.,0.,0.,0.,0.
 ,0.,0.,0.,0.,0.,0.,0.,0.,0.,0.,0.,0.,0.,0.,0.,0.,0.,0.,0.,0.,0.,0.,0.,
 0.,0.,0.,0.,0.\RMSD=6.098e-09,8.956e-09,7.872e-09,4.849e-09,6.450e-09,
 6.458e-09,6.675e-09,8.139e-09,9.438e-09,7.162e-09,5.526e-09,9.965e-09,
 8.200e-09,4.019e-09,4.898e-09,4.620e-09,8.623e-09,7.691e-09,3.787e-09,
 5.393e-09,3.656e-09,6.975e-09,5.733e-09,5.232e-09,5.417e-09,9.696e-09,
 6.364e-09,3.856e-09,4.285e-09,6.979e-09,4.122e-09,6.351e-09,7.382e-09,
 4.089e-09,9.392e-09,8.920e-09,4.900e-09\PG=C01 [X(C3H6O2)]\\@


 THE REASON MAN'S BEST FRIEND IS A DOG IS BECAUSE
 HE WAGS HIS TAIL INSTEAD OF HIS TONGUE.
 Job cpu time:       0 days  0 hours 18 minutes  2.7 seconds.
 Elapsed time:       0 days  0 hours  5 minutes 46.9 seconds.
 File lengths (MBytes):  RWF=     14 Int=      0 D2E=      0 Chk=      4 Scr=      1
 Normal termination of Gaussian 16 at Mon Dec 26 16:45:35 2022.
