GOMC Serial Version 1.9
Started at: Fri Dec  9 12:50:00 2016
On hostname: potoff39.eng.wayne.edu

Total number of CPUs: 4
Total number of CPUs available: 4
Model name: Intel(R) Core(TM) i5-2500K CPU @ 3.30GHz

System name: Linux
Release: 2.6.32-642.4.2.el6.x86_64
Version: #1 SMP Tue Aug 23 19:58:13 UTC 2016
Kernel Architecture: x86_64
Total Ram: 7856.3MB
Used Ram: 5566.3MB
Working in the current directory /home3/soroush/Desktop/validation/GOMC_Serial-development_1.90/GOMC_Examples-master/NVT_GEMC/binary_mixture/isobutane_and_neopentane_T_360_00_K/x_0.500

------------------------------------------------------
This code was compiled to support the Gibbs ensemble.
------------------------------------------------------

REMINDER: CHARMM force field has been selected!
NVT_GEMC simulation has been selected 
Temperature of system has been set to 360.0 K 
By default intra box swap frequency has been set to zero
Warning: Electrostatic energy would not be calculated!
Reading from CHARMM-Style Parameter File file: ./../../../../common/Par_TraPPE_Alkanes_CHARMM.inp

Finished reading CHARMM-Style Parameter File file: ./../../../../common/Par_TraPPE_Alkanes_CHARMM.inp

Reading from Box 1 PDB coordinate file file: ./STEP3_START_ISB_NEO_sys_BOX_0.pdb

Finished reading Box 1 PDB coordinate file file: ./STEP3_START_ISB_NEO_sys_BOX_0.pdb

Reading from Box 2 PDB coordinate file file: ./STEP3_START_ISB_NEO_sys_BOX_1.pdb

Finished reading Box 2 PDB coordinate file file: ./STEP3_START_ISB_NEO_sys_BOX_1.pdb

Random number seed: 450

Molecules in PSF:

Molecule Kind: ISB
Idx	name	type	charge	mass
0	C1	CH1	0.0	13.0
1	C2	CH3	0.0	15.0
2	C3	CH3	0.0	15.0
3	C4	CH3	0.0	15.0

Bonds:
[0 1] [0 2] [0 3] 

Angles:
[1 0 3] [1 0 2] [2 0 3] 

Dihedrals:

Molecule Kind: NEO
Idx	name	type	charge	mass
0	C1	CT	0.0	12.0
1	C2	CH3	0.0	15.0
2	C3	CH3	0.0	15.0
3	C4	CH3	0.0	15.0
4	C5	CH3	0.0	15.0

Bonds:
[0 1] [0 2] [0 3] [0 4] 

Angles:
[1 0 4] [1 0 3] [1 0 2] [2 0 4] [2 0 3] [3 0 4] 

Dihedrals:

REMINDER! 1-3 and 1-4 Interaction is OFF


########################## INITIAL SIMULATION ENERGY ##########################
ETITLE_BOX_0    TOTAL           INTRA(B)        INTRA(N)        INTER(LJ)       LRC             TOTAL_ELECT     REAL            RECIP           SELF            CORR            

ENERGY_BOX_0    13948327.3067   45654.5668      0.0000          13930559.9077   -27887.1678     0.0000          0.0000          0.0000          0.0000          -0.0000         

ETITLE_BOX_1    TOTAL           INTRA(B)        INTRA(N)        INTER(LJ)       LRC             TOTAL_ELECT     REAL            RECIP           SELF            CORR            

ENERGY_BOX_1    -50964.1052     45617.9658      0.0000          -73954.5137     -22627.5572     0.0000          0.0000          0.0000          0.0000          -0.0000         

###############################################################################

############################# STARTING SIMULATION #############################
MTITLE_BOX_0    DISTRY          DISACCEPT       DISACCEPT%      DISMAX          ROTATE          ROTACCEPT       ROTACCEPT%      ROTMAX          INTRASWAP       INTACCEPT       INTACCEPT%      TRANSFER        TRANACCEPT      TRANACCEPT%     VOLUME          VOLACCEPT       VOLACCEPT%      VOLMAX          STEP            

ETITLE_BOX_0    TOTAL           INTRA(B)        INTRA(N)        INTER(LJ)       LRC             TOTAL_ELECT     REAL            RECIP           SELF            CORR            
STITLE_BOX_0    VOLUME          PRESSURE        TOTALMOL        MOLFRAC_ISB     MOLFRAC_NEO     TOT_DENSITY     

MTITLE_BOX_1    DISTRY          DISACCEPT       DISACCEPT%      DISMAX          ROTATE          ROTACCEPT       ROTACCEPT%      ROTMAX          INTRASWAP       INTACCEPT       INTACCEPT%      TRANSFER        TRANACCEPT      TRANACCEPT%     VOLUME          VOLACCEPT       VOLACCEPT%      VOLMAX          STEP            

ETITLE_BOX_1    TOTAL           INTRA(B)        INTRA(N)        INTER(LJ)       LRC             TOTAL_ELECT     REAL            RECIP           SELF            CORR            
STITLE_BOX_1    VOLUME          PRESSURE        TOTALMOL        MOLFRAC_ISB     MOLFRAC_NEO     TOT_DENSITY     

Printed combined psf to file isobutane_neopentane_NVT_360_00_K.psf
MOVE_BOX_0      34495           16823           48.7694         0.7357          4957            3255            65.6647         3.1416          0               0               0.0000          10113           2730            26.9950         972             532             54.7325         4918.0028       100000          

ENERGY_BOX_0    -370026.7079    574198.7059     0.0000          -855334.0152    -88891.3986     0.0000          0.0000          0.0000          0.0000          0.0000          

STAT_BOX_0      290054.9351     3.2014          832             0.4916          0.5084          310.8204        

MOVE_BOX_1      34237           17117           49.9956         9.8999          5050            4101            81.2079         3.1416          0               0               0.0000          10176           3062            30.0904         0               0               0.0000          500.0000        100000          

ENERGY_BOX_1    101802.2911     128352.3062     0.0000          -24274.1917     -2275.8234      0.0000          0.0000          0.0000          0.0000          0.0000          

STAT_BOX_1      452930.0289     15.2367         168             0.5417          0.4583          39.7598         

Steps/sec. : 3086.1315
MOVE_BOX_0      69177           34191           49.4254         0.7235          9943            5928            59.6198         3.1416          0               0               0.0000          20164           5132            25.4513         2002            1088            54.3457         1988.2838       200000          

ENERGY_BOX_0    -520159.2038    619360.3108     0.0000          -1029405.3167   -110114.1980    0.0000          0.0000          0.0000          0.0000          0.0000          

STAT_BOX_0      255966.8155     -49.7688        868             0.4804          0.5196          368.3360        

MOVE_BOX_1      68372           37581           54.9655         39.3386         10059           8739            86.8774         3.1416          0               0               0.0000          20283           5500            27.1163         0               0               0.0000          500.0000        200000          

ENERGY_BOX_1    62287.2189      82775.7220      0.0000          -19226.4129     -1262.0902      0.0000          0.0000          0.0000          0.0000          0.0000          

STAT_BOX_1      487018.1485     12.3987         132             0.6288          0.3712          28.5032         

Steps/sec. : 2312.3603
MOVE_BOX_0      103748          51491           49.6308         0.6531          15049           8580            57.0138         2.3137          0               0               0.0000          30259           7211            23.8309         3012            1623            53.8845         3173.9479       300000          

ENERGY_BOX_0    -599301.8902    651400.2977     0.0000          -1124513.8798   -126188.3080    0.0000          0.0000          0.0000          0.0000          0.0000          

STAT_BOX_0      231906.3474     33.5243         885             0.4836          0.5164          414.2290        

MOVE_BOX_1      102806          58756           57.1523         39.9760         14949           13265           88.7350         3.1416          0               0               0.0000          30177           7596            25.1715         0               0               0.0000          500.0000        300000          

ENERGY_BOX_1    60214.2017      71419.9897      0.0000          -10291.9556     -913.8325       0.0000          0.0000          0.0000          0.0000          0.0000          

STAT_BOX_1      511078.6166     10.1454         115             0.6261          0.3739          23.6775         

Steps/sec. : 2328.1701
MOVE_BOX_0      138296          68776           49.7310         0.5482          20119           11135           55.3457         2.1552          0               0               0.0000          40210           8776            21.8254         4018            2148            53.4594         2783.1581       400000          

ENERGY_BOX_0    -696702.6461    637710.4785     0.0000          -1200364.5631   -134048.5615    0.0000          0.0000          0.0000          0.0000          0.0000          

STAT_BOX_0      213666.2957     -0.7298         876             0.4863          0.5137          444.7619        

MOVE_BOX_1      137233          81312           59.2511         40.4460         19914           17924           90.0070         3.1416          0               0               0.0000          40210           9152            22.7605         0               0               0.0000          500.0000        400000          

ENERGY_BOX_1    72168.1533      86309.8962      0.0000          -13103.7857     -1037.9572      0.0000          0.0000          0.0000          0.0000          0.0000          

STAT_BOX_1      529318.6683     8.0236          124             0.5968          0.4032          24.8107         

Steps/sec. : 2083.8263
MOVE_BOX_0      172853          86107           49.8152         0.5759          25060           13643           54.4413         1.7942          0               0               0.0000          50113           10208           20.3700         5082            2724            53.6009         2939.9777       500000          

ENERGY_BOX_0    -651865.5242    634352.1581     0.0000          -1157507.9111   -128709.7712    0.0000          0.0000          0.0000          0.0000          0.0000          

STAT_BOX_0      209683.7547     15.9878         849             0.4782          0.5218          440.0036        

MOVE_BOX_1      171826          102557          59.6865         40.5472         24869           22558           90.7073         3.1416          0               0               0.0000          50197           10557           21.0311         0               0               0.0000          500.0000        500000          

ENERGY_BOX_1    89035.1606      110376.6354     0.0000          -19829.4390     -1512.0358      0.0000          0.0000          0.0000          0.0000          0.0000          

STAT_BOX_1      533301.2093     9.9787          151             0.6225          0.3775          29.8176         

Steps/sec. : 1600.2919
MOVE_BOX_0      207276          103354          49.8630         0.5714          30049           16154           53.7589         1.9438          0               0               0.0000          60068           11468           19.0917         6072            3255            53.6067         3413.5570       600000          

ENERGY_BOX_0    -716518.1093    660436.9129     0.0000          -1239308.0632   -137646.9590    0.0000          0.0000          0.0000          0.0000          0.0000          

STAT_BOX_0      204711.1749     9.3690          867             0.4752          0.5248          460.5437        

MOVE_BOX_1      206396          123797          59.9803         40.6728         29884           27226           91.1056         3.1416          0               0               0.0000          60255           11835           19.6415         0               0               0.0000          500.0000        600000          

ENERGY_BOX_1    63487.4174      78853.4144      0.0000          -14221.9692     -1144.0278      0.0000          0.0000          0.0000          0.0000          0.0000          

STAT_BOX_1      538273.7891     11.1726         133             0.6617          0.3383          25.7953         

Steps/sec. : 1664.9396
MOVE_BOX_0      241630          120565          49.8965         0.5902          35171           18748           53.3053         2.3072          0               0               0.0000          70109           12721           18.1446         7060            3776            53.4844         3816.4077       700000          

ENERGY_BOX_0    -714399.5696    636078.3752     0.0000          -1216602.5950   -133875.3498    0.0000          0.0000          0.0000          0.0000          0.0000          

STAT_BOX_0      205845.0789     -68.4408        860             0.4907          0.5093          452.8009        

MOVE_BOX_1      240920          144577          60.0104         40.6443         34898           31873           91.3319         3.1416          0               0               0.0000          70212           13081           18.6307         0               0               0.0000          500.0000        700000          

ENERGY_BOX_1    80008.1487      95642.1276      0.0000          -14309.4456     -1324.5334      0.0000          0.0000          0.0000          0.0000          0.0000          

STAT_BOX_1      537139.8851     11.5776         140             0.5571          0.4429          27.8448         

Steps/sec. : 1703.5097
MOVE_BOX_0      276232          137890          49.9182         0.5760          40108           21255           52.9944         2.1986          0               0               0.0000          79855           13884           17.3865         8089            4322            53.4306         2306.5804       800000          

ENERGY_BOX_0    -695458.2861    643452.3856     0.0000          -1205403.5578   -133507.1139    0.0000          0.0000          0.0000          0.0000          0.0000          

STAT_BOX_0      195235.7614     2.2064          834             0.4760          0.5240          464.4339        

MOVE_BOX_1      275503          164693          59.7790         40.9101         39882           36433           91.3520         3.1416          0               0               0.0000          80331           14218           17.6993         0               0               0.0000          500.0000        800000          

ENERGY_BOX_1    86842.4099      113161.3777     0.0000          -24538.3549     -1780.6129      0.0000          0.0000          0.0000          0.0000          0.0000          

STAT_BOX_1      547749.2026     12.4165         166             0.6205          0.3795          31.9293         

Steps/sec. : 1676.6317
MOVE_BOX_0      310650          155120          49.9340         0.5635          45127           23795           52.7290         2.6303          0               0               0.0000          89942           15009           16.6874         9019            4828            53.5314         3117.0410       900000          

ENERGY_BOX_0    -757572.1870    632221.9319     0.0000          -1251459.0328   -138335.0861    0.0000          0.0000          0.0000          0.0000          0.0000          

STAT_BOX_0      194502.4715     34.3649         848             0.4800          0.5200          473.6110        

MOVE_BOX_1      310129          184322          59.4340         40.9284         44818           40984           91.4454         3.1416          0               0               0.0000          90315           15357           17.0038         0               0               0.0000          500.0000        900000          

ENERGY_BOX_1    87545.5412      106090.9151     0.0000          -17049.2672     -1496.1067      0.0000          0.0000          0.0000          0.0000          0.0000          

STAT_BOX_1      548482.4925     14.0297         152             0.6118          0.3882          29.2532         

Steps/sec. : 1832.8848
MOVE_BOX_0      345056          172350          49.9484         0.5515          50148           26344           52.5325         2.0380          0               0               0.0000          99985           15983           15.9854         10019           5368            53.5782         3658.0396       1000000         

ENERGY_BOX_0    -713091.5657    640286.5269     0.0000          -1219114.9688   -134263.1239    0.0000          0.0000          0.0000          0.0000          0.0000          

STAT_BOX_0      187792.4994     -1.3634         820             0.4744          0.5256          474.9024        

MOVE_BOX_1      344680          203743          59.1108         41.0946         49796           45525           91.4230         3.1416          0               0               0.0000          100316          16303           16.2516         0               0               0.0000          500.0000        1000000         

ENERGY_BOX_1    77170.2217      110499.0185     0.0000          -31260.0820     -2068.7147      0.0000          0.0000          0.0000          0.0000          0.0000          

STAT_BOX_1      555192.4646     10.5775         180             0.6167          0.3833          34.1868         

Simulation Time (total): 519.8177sec.
GOMC Serial Version 1.9
Completed at: Fri Dec  9 12:58:40 2016
On hostname: potoff39.eng.wayne.edu
