GOMC Serial Version 1.9
Started at: Sat Apr 22 20:26:38 2017
On hostname: potoff39.eng.wayne.edu

Total number of CPUs: 4
Total number of CPUs available: 4
Model name: Intel(R) Core(TM) i5-2500K CPU @ 3.30GHz

System name: Linux
Release: 2.6.32-642.4.2.el6.x86_64
Version: #1 SMP Tue Aug 23 19:58:13 UTC 2016
Kernel Architecture: x86_64
Total Ram: 7856.3MB
Used Ram: 5355.8MB
Working in the current directory /home3/soroush/Desktop/validation/GOMC_Examples/NVT_GEMC/binary_mixture/isobutane_and_neopentane_T_360_00_K/x_0.500

------------------------------------------------------
This code was compiled to support the Gibbs ensemble.
------------------------------------------------------

REMINDER: CHARMM force field has been selected!
NVT_GEMC simulation has been selected 
Temperature of system has been set to 360.00000 K 
Note: Pressure will be calculated every 1000 steps.
By default intra box swap frequency has been set to zero
Warning: Electrostatic energy would not be calculated!
Reading from CHARMM-Style Parameter File file: ./../../../../common/Par_TraPPE_Alkanes_CHARMM.inp
Finished reading CHARMM-Style Parameter File file: ./../../../../common/Par_TraPPE_Alkanes_CHARMM.inp
Reading from Box 1 PDB coordinate file file: ./STEP3_START_ISB_NEO_sys_BOX_0.pdb
Finished reading Box 1 PDB coordinate file file: ./STEP3_START_ISB_NEO_sys_BOX_0.pdb
Reading from Box 2 PDB coordinate file file: ./STEP3_START_ISB_NEO_sys_BOX_1.pdb
Finished reading Box 2 PDB coordinate file file: ./STEP3_START_ISB_NEO_sys_BOX_1.pdb
Random number seed: 450

Molecules in PSF:
Molecule Kind: ISB
Idx	name	type	charge	mass
0	C1	CH1	0.0000	13.0190
1	C2	CH3	0.0000	15.0350
2	C3	CH3	0.0000	15.0350
3	C4	CH3	0.0000	15.0350
Bonds:
[0 1] [0 2] [0 3] 
Angles:
[1 0 3] [1 0 2] [2 0 3] 
Dihedrals:

Molecule Kind: NEO
Idx	name	type	charge	mass
0	C1	CT	0.0000	12.0110
1	C2	CH3	0.0000	15.0350
2	C3	CH3	0.0000	15.0350
3	C4	CH3	0.0000	15.0350
4	C5	CH3	0.0000	15.0350
Bonds:
[0 1] [0 2] [0 3] [0 4] 
Angles:
[1 0 4] [1 0 3] [1 0 2] [2 0 4] [2 0 3] [3 0 4] 
Dihedrals:

REMINDER! 1-3 and 1-4 Interaction is OFF
Minimum coordinates in box 0: x =    1.011, y =    1.043, z =    1.010
Maximum coordinates in box 0: x =   66.698, y =   66.977, z =   66.999
Minimum coordinates in box 1: x =    1.000, y =    1.076, z =    1.269
Maximum coordinates in box 1: x =   71.937, y =   72.000, z =   71.999

###############################################################################
########################## INITIAL SIMULATION ENERGY ##########################

ETITLE:     STEP           TOTAL        INTRA(B)       INTRA(NB)       INTER(LJ)             LRC     TOTAL_ELECT            REAL           RECIP            SELF            CORR

ENER_0:        0   13948327.3067      45654.5668          0.0000   13930559.9077     -27887.1678          0.0000          0.0000          0.0000          0.0000         -0.0000

ENER_1:        0     -50964.1052      45617.9658          0.0000     -73954.5137     -22627.5572          0.0000          0.0000          0.0000          0.0000         -0.0000

###############################################################################
############################# STARTING SIMULATION #############################

MTITLE:     STEP          DISTRY       DISACCEPT      DISACCEPT%          DISMAX          ROTATE       ROTACCEPT      ROTACCEPT%          ROTMAX       INTRASWAP       INTACCEPT      INTACCEPT%        TRANSFER      TRANACCEPT     TRANACCEPT%          VOLUME       VOLACCEPT      VOLACCEPT%          VOLMAX

ETITLE:     STEP           TOTAL        INTRA(B)       INTRA(NB)       INTER(LJ)             LRC     TOTAL_ELECT            REAL           RECIP            SELF            CORR

STITLE:     STEP          VOLUME        PRESSURE        TOTALMOL     MOLFRAC_ISB     MOLFRAC_NEO     TOT_DENSITY

Printed combined psf to file isobutane_neopentane_NVT_360_00_K_merged.psf
MOVE_0:   100000           34512           16991         49.2322          2.0937            5000            3750         75.0000          3.1416               0               0          0.0000           10061            3121         31.0208            1042             590         56.6219       7712.7336

ENER_0:   100000      93288.1362     231911.1212          0.0000    -128960.4139      -9662.5712          0.0000          0.0000          0.0000          0.0000          0.0000

STAT_0:   100000     366051.9398         11.5541             307          0.4723          0.5277         91.2552

PRES_0:   100000        -30.6306        -16.0124        -21.9194

MOVE_1:   100000           34366           16811         48.9175          1.0976            4995            3570         71.4715          3.1416               0               0          0.0000           10024            2928         29.2099            1042             590         56.6219       7712.7336

ENER_1:   100000     -67055.5583     508858.6521          0.0000    -528840.4867     -47073.7238          0.0000          0.0000          0.0000          0.0000          0.0000

STAT_1:   100000     376933.0242         40.9135             693          0.5123          0.4877        198.3356

PRES_1:   100000        -14.5112          3.8881        -37.4923

Steps/sec. : 3267.4242
MOVE_0:   200000           68823           34696         50.4134         31.6484            9947            7985         80.2755          3.1416               0               0          0.0000           19817            5915         29.8481            2055            1130         54.9878       8117.9336

ENER_0:   200000      82305.1607     116807.7063          0.0000     -32242.4942      -2260.0514          0.0000          0.0000          0.0000          0.0000          0.0000

STAT_0:   200000     407866.7699         11.8426             161          0.6087          0.3913         41.6967

PRES_0:   200000         -4.2716         -6.5824         -7.8944

MOVE_1:   200000           69275           34271         49.4709          0.9444            9975            6643         66.5965          3.1416               0               0          0.0000           20108            5576         27.7303            2055            1130         54.9878       8117.9336

ENER_1:   200000    -266986.5938     609386.8916          0.0000    -797754.2146     -78619.2708          0.0000          0.0000          0.0000          0.0000          0.0000

STAT_1:   200000     335118.1941        -12.6896             839          0.4791          0.5209        272.0136

PRES_1:   200000        -77.3897        -57.0218        -82.9465

Steps/sec. : 2599.5694
MOVE_0:   300000          103449           54447         52.6317         38.0044           14894           12503         83.9466          3.1416               0               0          0.0000           30003            8401         28.0005            3030            1663         54.8845       5607.8458

ENER_0:   300000      63482.7994      82693.6169          0.0000     -18138.3583      -1072.4591          0.0000          0.0000          0.0000          0.0000          0.0000

STAT_0:   300000     439127.1720         11.2154             114          0.5614          0.4386         27.7086

PRES_0:   300000          2.6929         -2.5607         -3.1759

MOVE_1:   300000          103702           51483         49.6451          0.7771           14906            9391         63.0015          3.1416               0               0          0.0000           30016            8015         26.7024            3030            1663         54.8845       5607.8458

ENER_1:   300000    -387222.1730     639123.6307          0.0000    -930139.5354     -96206.2684          0.0000          0.0000          0.0000          0.0000          0.0000

STAT_1:   300000     303857.7920        -26.6416             886          0.4921          0.5079        315.9234

PRES_1:   300000       -108.7878        -90.1870        -53.8785

Steps/sec. : 2141.5491
MOVE_0:   400000          138218           75347         54.5132         38.5768           19971           17200         86.1249          3.1416               0               0          0.0000           39936           10716         26.8329            4017            2184         54.3689       4551.1514

ENER_0:   400000      74499.0800      94243.4797          0.0000     -18360.8903      -1383.5094          0.0000          0.0000          0.0000          0.0000          0.0000

STAT_0:   400000     459269.1988         12.3997             132          0.5455          0.4545         30.7833

PRES_0:   400000         -2.6588         -2.1915          1.6846

MOVE_1:   400000          138034           68658         49.7399          0.6843           19905           12107         60.8239          3.1416               0               0          0.0000           39919           10348         25.9225            4017            2184         54.3689       4551.1514

ENER_1:   400000    -435382.2626     638628.7906          0.0000    -975156.9926     -98854.0605          0.0000          0.0000          0.0000          0.0000          0.0000

STAT_1:   400000     283715.7652         -6.0993             868          0.4931          0.5069        331.4076

PRES_1:   400000        -57.6877        -77.8587        -50.7781

Steps/sec. : 2107.5043
MOVE_0:   500000          172993           96431         55.7427         39.2387           24945           21781         87.3161          3.1416               0               0          0.0000           49724           12793         25.7280            5100            2768         54.2745       4132.4200

ENER_0:   500000      69796.8446      89470.3221          0.0000     -18362.7409      -1310.7365          0.0000          0.0000          0.0000          0.0000          0.0000

STAT_0:   500000     483318.6113          8.3170             132          0.5530          0.4470         29.2033

PRES_0:   500000         -4.1105         -4.8018         -4.6175

MOVE_1:   500000          172393           85882         49.8176          0.7148           24840           14790         59.5411          3.1416               0               0          0.0000           50005           12425         24.8475            5100            2768         54.2745       4132.4200

ENER_1:   500000    -518733.5096     626046.7575          0.0000   -1036722.0276    -108058.2395          0.0000          0.0000          0.0000          0.0000          0.0000

STAT_1:   500000     259666.3527         18.1099             868          0.4919          0.5081        362.1912

PRES_1:   500000        -19.7129        -28.2099        -52.0213

Steps/sec. : 1928.9448
MOVE_0:   600000          207276          118359         57.1021         40.1616           30039           26523         88.2952          3.1416               0               0          0.0000           59763           14659         24.5286            6201            3368         54.3138       3124.2244

ENER_0:   600000      72381.7284      85450.9471          0.0000     -12329.6135       -739.6052          0.0000          0.0000          0.0000          0.0000          0.0000

STAT_0:   600000     518232.2957         10.5493             102          0.5196          0.4804         21.1991

PRES_0:   600000          3.4541          3.5919         -3.5662

MOVE_1:   600000          206966          103165         49.8464          0.5957           29820           17384         58.2964          3.1416               0               0          0.0000           59935           14261         23.7941            6201            3368         54.3138       3124.2244

ENER_1:   600000    -705058.9699     646586.1053          0.0000   -1218326.5527    -133318.5225          0.0000          0.0000          0.0000          0.0000          0.0000

STAT_1:   600000     224752.6683        -12.1060             898          0.4978          0.5022        432.3744

PRES_1:   600000         -3.8223        -11.9593       -125.7252

Steps/sec. : 1877.5989
MOVE_0:   700000          241708          140341         58.0622         40.4813           35118           31274         89.0540          3.1416               0               0          0.0000           69858           16087         23.0281            7188            3895         54.1875       2357.6345

ENER_0:   700000      86349.4616     108744.9790          0.0000     -20917.9111      -1477.6064          0.0000          0.0000          0.0000          0.0000          0.0000

STAT_0:   700000     530705.0063          8.4428             147          0.5578          0.4422         29.5871

PRES_0:   700000         -4.1079         -3.1164         -6.4466

MOVE_1:   700000          241447          120442         49.8834          0.6253           34726           19863         57.1992          2.3464               0               0          0.0000           69955           15734         22.4916            7188            3895         54.1875       2357.6345

ENER_1:   700000    -688531.3131     595743.6156          0.0000   -1156529.4027    -127745.5260          0.0000          0.0000          0.0000          0.0000          0.0000

STAT_1:   700000     212279.9577         21.0791             853          0.4900          0.5100        435.5632

PRES_1:   700000         -0.8654        -39.2703          1.8980

Steps/sec. : 1614.2355
MOVE_0:   800000          276166          162076         58.6879         40.7668           40123           35960         89.6244          3.1416               0               0          0.0000           79788           17265         21.6386            8247            4469         54.1894       2753.5589

ENER_0:   800000      94033.9242     116434.4723          0.0000     -20804.9126      -1595.6354          0.0000          0.0000          0.0000          0.0000          0.0000

STAT_0:   800000     542012.5523         13.8449             154          0.5455          0.4545         30.4312

PRES_0:   800000          1.5969         -2.7962          2.8026

MOVE_1:   800000          276117          137789         49.9024          0.5372           39641           22353         56.3886          2.1636               0               0          0.0000           79918           16919         21.1704            8247            4469         54.1894       2753.5589

ENER_1:   800000    -686943.0499     651206.8288          0.0000   -1205510.0369    -132639.8418          0.0000          0.0000          0.0000          0.0000          0.0000

STAT_1:   800000     200972.4117          8.0581             846          0.4917          0.5083        456.1286

PRES_1:   800000        -29.7323         53.6097        -81.5525

Steps/sec. : 1328.1812
MOVE_0:   900000          310676          181999         58.5816         40.9607           45198           40628         89.8889          3.1416               0               0          0.0000           89673           18462         20.5881            9250            5016         54.2270       3000.1965

ENER_0:   900000      91682.9742     109914.3546          0.0000     -16599.5148      -1631.8657          0.0000          0.0000          0.0000          0.0000          0.0000

STAT_0:   900000     549783.2224         10.8937             158          0.5823          0.4177         30.5339

PRES_0:   900000         -3.6055         -2.9682         -1.1424

MOVE_1:   900000          310650          155101         49.9279          0.5788           44573           24841         55.7310          1.5990               0               0          0.0000           89980           18120         20.1378            9250            5016         54.2270       3000.1965

ENER_1:   900000    -715451.3087     646373.3708          0.0000   -1224768.6224    -137056.0572          0.0000          0.0000          0.0000          0.0000          0.0000

STAT_1:   900000     193201.7416        103.1972             842          0.4846          0.5154        472.9583

PRES_1:   900000         73.7503        129.0828         43.6058

Steps/sec. : 1435.9957
MOVE_0:  1000000          344805          201577         58.4612         40.9232           50080           45120         90.0958          3.1416               0               0          0.0000           99828           19490         19.5236           10284            5571         54.1715       4043.6520

ENER_0:  1000000      93794.5114     115255.1643          0.0000     -19726.3055      -1734.3474          0.0000          0.0000          0.0000          0.0000          0.0000

STAT_0:  1000000     548276.1896         17.1444             162          0.5617          0.4383         31.5344

PRES_0:  1000000          4.9714          3.7840          1.2363

MOVE_1:  1000000          345400          172503         49.9430          0.5405           49649           27401         55.1894          0.9853               0               0          0.0000           99954           19152         19.1608           10284            5571         54.1715       4043.6520

ENER_1:  1000000    -740502.0184     616565.0882          0.0000   -1222545.1806    -134521.9260          0.0000          0.0000          0.0000          0.0000          0.0000

STAT_1:  1000000     194708.7744        -81.2813             838          0.4881          0.5119        466.7167

PRES_1:  1000000       -135.8344       -158.0644        -20.3083

Simulation Time (total): 547.5641sec.
GOMC Serial Version 1.9
Completed at: Sat Apr 22 20:35:46 2017
On hostname: potoff39.eng.wayne.edu
