GOMC Serial Version 1.9
Started at: Fri Dec  9 11:44:32 2016
On hostname: potoff39.eng.wayne.edu

Total number of CPUs: 4
Total number of CPUs available: 4
Model name: Intel(R) Core(TM) i5-2500K CPU @ 3.30GHz

System name: Linux
Release: 2.6.32-642.4.2.el6.x86_64
Version: #1 SMP Tue Aug 23 19:58:13 UTC 2016
Kernel Architecture: x86_64
Total Ram: 7856.3MB
Used Ram: 5547.0MB
Working in the current directory /home3/soroush/Desktop/validation/GOMC_Serial-development_1.90/GOMC_Examples-master/GCMC/water/run2a_bridge

------------------------------------------------------
This code was compiled to support the grand canonical ensemble.
------------------------------------------------------

REMINDER: CHARMM force field has been selected!
Temperature of system has been set to 700.0 K 
Ewald Summation method will be used to calculate electrostatic interactions.
Ewald Tolerance is set to: 0.0
By default intra box swap frequency has been set to zero
Warning: 1-4 electro static scaling has been set to zero!
Warning: By default, Fourier terms of ewald method will be cached!
Reading from CHARMM-Style Parameter File file: ./../../../common/Par_SPCE_Charmm.inp

Finished reading CHARMM-Style Parameter File file: ./../../../common/Par_SPCE_Charmm.inp

Reading from Box 1 PDB coordinate file file: ./STEP3_START_test_BOX_0.pdb

Finished reading Box 1 PDB coordinate file file: ./STEP3_START_test_BOX_0.pdb

Reading from Box 2 PDB coordinate file file: ./STEP3_START_test_BOX_reserv.pdb

Finished reading Box 2 PDB coordinate file file: ./STEP3_START_test_BOX_reserv.pdb

Random number seed: 800

Molecules in PSF:

Molecule Kind: SPC
Idx	name	type	charge	mass
0	H1	HT	0.4	1.0
1	OH2	OT	-0.8	16.0
2	H2	HT	0.4	1.0

Bonds:
[0 1] [1 2] 

Angles:
[0 1 2] 

Dihedrals:

REMINDER! 1-3 and 1-4 Interaction is OFF

box: 0, RecipVectors: 474, kmax: 7

########################## INITIAL SIMULATION ENERGY ##########################
ETITLE_BOX_0    TOTAL           INTRA(B)        INTRA(N)        INTER(LJ)       LRC             TOTAL_ELECT     REAL            RECIP           SELF            CORR            

ENERGY_BOX_0    11491643.4502   42.3151         0.0000          11506099.9313   -4459.8403      -10038.9558     16869.1565      84438.7958      -7703578.9648   7592232.0567    

ETITLE_BOX_1    TOTAL           INTRA(B)        INTRA(N)        INTER(LJ)       LRC             TOTAL_ELECT     REAL            RECIP           SELF            CORR            

ENERGY_BOX_1    95.1894         95.1894         0.0000          0.0000          0.0000          0.0000          0.0000          0.0000          0.0000          -0.0000         

###############################################################################

############################# STARTING SIMULATION #############################
MTITLE_BOX_0    DISTRY          DISACCEPT       DISACCEPT%      DISMAX          ROTATE          ROTACCEPT       ROTACCEPT%      ROTMAX          INTRASWAP       INTACCEPT       INTACCEPT%      TRANSFER        TRANACCEPT      TRANACCEPT%     STEP            

ETITLE_BOX_0    TOTAL           INTRA(B)        INTRA(N)        INTER(LJ)       LRC             TOTAL_ELECT     REAL            RECIP           SELF            CORR            
STITLE_BOX_0    TOTALMOL        

MTITLE_BOX_1    TRANSFER        TRANACCEPT      TRANACCEPT%     STEP            

ETITLE_BOX_1    TOTAL           INTRA(B)        INTRA(N)        INTER(LJ)       LRC             TOTAL_ELECT     REAL            RECIP           SELF            CORR            
STITLE_BOX_1    TOTALMOL        

Printed combined psf to file SPCE_700_00_K_u_4200.psf
MOVE_BOX_0      2020            843             41.7327         0.4122          2001            1041            52.0240         1.1247          0               0               0.0000          3004            118             3.9281          10000           

ENERGY_BOX_0    -462726.5726    13452.5550      0.0000          57463.9658      -2442.2086      -531200.8848    -471523.6061    22822.3334      -5700648.4339   5618148.8219    

STAT_BOX_0      185             

MOVE_BOX_1      2975            53              1.7815          10000           

ENERGY_BOX_1    42832.3125      42832.3125      0.0000          0.0000          0.0000          0.0000          0.0000          0.0000          0.0000          0.0000          

STAT_BOX_1      665             

Steps/sec. : 1970.8569
MOVE_BOX_0      4081            1859            45.5526         0.3463          4006            2029            50.6490         0.9293          0               0               0.0000          5992            187             3.1208          20000           

ENERGY_BOX_0    -503471.3148    27633.7536      0.0000          67449.0680      -2415.8777      -596138.2587    -533846.7192    20721.9899      -5669834.1181   5586820.5887    

STAT_BOX_0      184             

MOVE_BOX_1      5921            121             2.0436          20000           

ENERGY_BOX_1    58799.3364      58799.3364      0.0000          0.0000          0.0000          0.0000          0.0000          0.0000          0.0000          0.0000          

STAT_BOX_1      666             

Steps/sec. : 2217.4872
MOVE_BOX_0      6034            2854            47.2986         0.4048          6027            3045            50.5226         0.9252          0               0               0.0000          8988            246             2.7370          30000           

ENERGY_BOX_0    -497973.4557    34081.9126      0.0000          66229.7862      -2260.8893      -596024.2652    -532706.4280    17149.7260      -5484948.2229   5404480.6596    

STAT_BOX_0      178             

MOVE_BOX_1      8951            174             1.9439          30000           

ENERGY_BOX_1    72414.2330      72414.2330      0.0000          0.0000          0.0000          0.0000          0.0000          0.0000          0.0000          0.0000          

STAT_BOX_1      672             

Steps/sec. : 2198.4516
MOVE_BOX_0      8042            3856            47.9483         0.3933          8013            4034            50.3432         0.8594          0               0               0.0000          11994           302             2.5179          40000           

ENERGY_BOX_0    -550343.3520    47501.2215      0.0000          57957.0293      -2685.6088      -653115.9939    -585228.4613    20882.6823      -5977977.2767   5889207.0617    

STAT_BOX_0      194             

MOVE_BOX_1      11951           246             2.0584          40000           

ENERGY_BOX_1    86742.1043      86742.1043      0.0000          0.0000          0.0000          0.0000          0.0000          0.0000          0.0000          0.0000          

STAT_BOX_1      656             

Steps/sec. : 2177.1801
MOVE_BOX_0      10022           4844            48.3337         0.3720          10053           5080            50.5322         1.0954          0               0               0.0000          14991           330             2.2013          50000           

ENERGY_BOX_0    -576826.9491    57621.2097      0.0000          79869.4678      -2969.6114      -711348.0151    -635920.2183    18375.0683      -6286120.4353   6192317.5701    

STAT_BOX_0      204             

MOVE_BOX_1      14934           284             1.9017          50000           

ENERGY_BOX_1    89686.5856      89686.5856      0.0000          0.0000          0.0000          0.0000          0.0000          0.0000          0.0000          0.0000          

STAT_BOX_1      646             

Steps/sec. : 1963.4677
MOVE_BOX_0      12048           5865            48.6803         0.3962          12087           6075            50.2606         0.8416          0               0               0.0000          17952           368             2.0499          60000           

ENERGY_BOX_0    -558602.7595    59167.6685      0.0000          70972.3065      -2882.9121      -685859.8224    -612155.1663    18178.5931      -6193677.4877   6101794.2385    

STAT_BOX_0      201             

MOVE_BOX_1      17913           319             1.7808          60000           

ENERGY_BOX_1    102825.6812     102825.6812     0.0000          0.0000          0.0000          0.0000          0.0000          0.0000          0.0000          0.0000          

STAT_BOX_1      649             

Steps/sec. : 1965.2899
MOVE_BOX_0      13962           6824            48.8755         0.3731          14116           7101            50.3046         0.9441          0               0               0.0000          20934           396             1.8917          70000           

ENERGY_BOX_0    -585666.5146    67745.9193      0.0000          87471.5315      -3116.9646      -737767.0009    -662654.1217    21442.4771      -6440192.0146   6343636.6583    

STAT_BOX_0      209             

MOVE_BOX_1      20988           355             1.6914          70000           

ENERGY_BOX_1    106538.3612     106538.3612     0.0000          0.0000          0.0000          0.0000          0.0000          0.0000          0.0000          0.0000          

STAT_BOX_1      641             

Steps/sec. : 1954.0135
MOVE_BOX_0      16005           7841            48.9909         0.3442          16076           8078            50.2488         0.8718          0               0               0.0000          23932           437             1.8260          80000           

ENERGY_BOX_0    -605751.9882    79603.7577      0.0000          87612.2881      -3087.2085      -769880.8255    -691309.7138    17761.3778      -6409377.6987   6313045.2092    

STAT_BOX_0      208             

MOVE_BOX_1      23987           395             1.6467          80000           

ENERGY_BOX_1    104359.4210     104359.4210     0.0000          0.0000          0.0000          0.0000          0.0000          0.0000          0.0000          0.0000          

STAT_BOX_1      642             

Steps/sec. : 1928.6670
MOVE_BOX_0      18044           8887            49.2518         0.4112          18134           9103            50.1985         0.8127          0               0               0.0000          26868           474             1.7642          90000           

ENERGY_BOX_0    -620285.6468    75650.5903      0.0000          108782.1988     -2998.7966      -801719.6393    -725944.9886    19162.7856      -6316934.7511   6221997.3149    

STAT_BOX_0      205             

MOVE_BOX_1      26954           429             1.5916          90000           

ENERGY_BOX_1    111219.7136     111219.7136     0.0000          0.0000          0.0000          0.0000          0.0000          0.0000          0.0000          0.0000          

STAT_BOX_1      645             

Steps/sec. : 1958.1132
MOVE_BOX_0      19971           9832            49.2314         0.3087          20131           10121           50.2757         0.9083          0               0               0.0000          29902           510             1.7056          100000          

ENERGY_BOX_0    -596196.1761    76391.2588      0.0000          113084.4943     -2940.5690      -782731.3603    -710252.6375    21569.9755      -6255306.1194   6161257.4211    

STAT_BOX_0      203             

MOVE_BOX_1      29996           463             1.5435          100000          

ENERGY_BOX_1    117202.4250     117202.4250     0.0000          0.0000          0.0000          0.0000          0.0000          0.0000          0.0000          0.0000          

STAT_BOX_1      647             

Steps/sec. : 1886.2945
MOVE_BOX_0      21905           10826           49.4225         0.3722          22178           11136           50.2119         0.7880          0               0               0.0000          32797           538             1.6404          110000          

ENERGY_BOX_0    -614334.8432    80579.8607      0.0000          89979.5159      -3087.2085      -781807.0112    -701507.7346    16015.5506      -6409377.6987   6313062.8715    

STAT_BOX_0      208             

MOVE_BOX_1      33120           496             1.4976          110000          

ENERGY_BOX_1    115994.3317     115994.3317     0.0000          0.0000          0.0000          0.0000          0.0000          0.0000          0.0000          0.0000          

STAT_BOX_1      642             

Steps/sec. : 1349.8199
MOVE_BOX_0      23954           11858           49.5032         0.3782          24232           12178           50.2559         0.8616          0               0               0.0000          35759           577             1.6136          120000          

ENERGY_BOX_0    -591772.7271    83734.2254      0.0000          100522.0380     -3028.1245      -773000.8659    -698004.1849    20214.9295      -6347749.0670   6252537.4565    

STAT_BOX_0      206             

MOVE_BOX_1      36055           533             1.4783          120000          

ENERGY_BOX_1    121621.4914     121621.4914     0.0000          0.0000          0.0000          0.0000          0.0000          0.0000          0.0000          0.0000          

STAT_BOX_1      644             

Steps/sec. : 1390.6972
MOVE_BOX_0      26024           12900           49.5696         0.3776          26186           13164           50.2711         0.8960          0               0               0.0000          38779           631             1.6272          130000          

ENERGY_BOX_0    -556716.1129    71064.7900      0.0000          94843.2353      -2630.5209      -719993.6174    -654050.9173    22560.0229      -5916348.6450   5827845.9219    

STAT_BOX_0      192             

MOVE_BOX_1      39011           573             1.4688          130000          

ENERGY_BOX_1    130376.3805     130376.3805     0.0000          0.0000          0.0000          0.0000          0.0000          0.0000          0.0000          0.0000          

STAT_BOX_1      658             

Steps/sec. : 1411.7972
MOVE_BOX_0      28097           13939           49.6103         0.3678          28187           14162           50.2430         0.8600          0               0               0.0000          41695           676             1.6213          140000          

ENERGY_BOX_0    -584436.9443    73031.7792      0.0000          89901.4613      -2797.4973      -744572.6875    -672680.4511    18627.9443      -6101234.5401   6010714.3594    

STAT_BOX_0      198             

MOVE_BOX_1      42021           624             1.4850          140000          

ENERGY_BOX_1    138215.7535     138215.7535     0.0000          0.0000          0.0000          0.0000          0.0000          0.0000          0.0000          0.0000          

STAT_BOX_1      652             

Steps/sec. : 1421.7234
MOVE_BOX_0      30034           14897           49.6005         0.3270          30229           15188           50.2431         0.8905          0               0               0.0000          44689           702             1.5709          150000          

ENERGY_BOX_0    -627915.8650    80887.8424      0.0000          98065.3575      -3116.9646      -803752.1003    -723714.6582    16201.4148      -6440192.0146   6343953.1576    

STAT_BOX_0      209             

MOVE_BOX_1      45048           661             1.4673          150000          

ENERGY_BOX_1    143068.2613     143068.2613     0.0000          0.0000          0.0000          0.0000          0.0000          0.0000          0.0000          0.0000          

STAT_BOX_1      641             

Steps/sec. : 1371.4883
MOVE_BOX_0      32022           15905           49.6690         0.3705          32254           16193           50.2046         0.7890          0               0               0.0000          47665           734             1.5399          160000          

ENERGY_BOX_0    -556616.6714    78040.4806      0.0000          103376.3862     -2825.8262      -735207.7121    -662930.3062    20018.4204      -6132048.8560   6039753.0296    

STAT_BOX_0      199             

MOVE_BOX_1      48059           683             1.4212          160000          

ENERGY_BOX_1    147459.0820     147459.0820     0.0000          0.0000          0.0000          0.0000          0.0000          0.0000          0.0000          0.0000          

STAT_BOX_1      651             

Steps/sec. : 1374.5293
MOVE_BOX_0      34040           16912           49.6827         0.3406          34199           17184           50.2471         0.9217          0               0               0.0000          50667           776             1.5316          170000          

ENERGY_BOX_0    -568531.1203    80783.8715      0.0000          108758.3201     -2769.3111      -755304.0007    -684209.1853    20798.5156      -6070420.2242   5978526.8932    

STAT_BOX_0      197             

MOVE_BOX_1      51094           723             1.4150          170000          

ENERGY_BOX_1    156650.7833     156650.7833     0.0000          0.0000          0.0000          0.0000          0.0000          0.0000          0.0000          0.0000          

STAT_BOX_1      653             

Steps/sec. : 1405.2872
MOVE_BOX_0      36046           17928           49.7364         0.3678          36188           18178           50.2321         0.9046          0               0               0.0000          53662           816             1.5206          180000          

ENERGY_BOX_0    -582013.2722    81532.6331      0.0000          100543.6483     -2854.2978      -761235.2558    -686464.4941    18907.3113      -6162863.1718   6069185.0989    

STAT_BOX_0      200             

MOVE_BOX_1      54104           766             1.4158          180000          

ENERGY_BOX_1    164103.5597     164103.5597     0.0000          0.0000          0.0000          0.0000          0.0000          0.0000          0.0000          0.0000          

STAT_BOX_1      650             

Steps/sec. : 1430.2020
MOVE_BOX_0      38057           18941           49.7701         0.3915          38203           19205           50.2709         1.0318          0               0               0.0000          56725           865             1.5249          190000          

ENERGY_BOX_0    -587884.7568    76575.0426      0.0000          91847.9668      -2797.4973      -753510.2689    -678487.4043    17933.8240      -6101234.5401   6008277.8515    

STAT_BOX_0      198             

MOVE_BOX_1      57015           813             1.4259          190000          

ENERGY_BOX_1    164280.4090     164280.4090     0.0000          0.0000          0.0000          0.0000          0.0000          0.0000          0.0000          0.0000          

STAT_BOX_1      652             

Steps/sec. : 1326.6805
MOVE_BOX_0      40036           19932           49.7852         0.3815          40231           20206           50.2250         0.8937          0               0               0.0000          59673           912             1.5283          200000          

ENERGY_BOX_0    -570189.4454    78223.2456      0.0000          94281.5252      -2854.2978      -739839.9184    -666401.4906    20228.3586      -6162863.1718   6069196.3854    

STAT_BOX_0      200             

MOVE_BOX_1      60060           862             1.4352          200000          

ENERGY_BOX_1    170078.3735     170078.3735     0.0000          0.0000          0.0000          0.0000          0.0000          0.0000          0.0000          0.0000          

STAT_BOX_1      650             

Steps/sec. : 1260.2328
MOVE_BOX_0      42004           20914           49.7905         0.3442          42237           21207           50.2095         0.8506          0               0               0.0000          62709           947             1.5102          210000          

ENERGY_BOX_0    -619809.9430    80358.7262      0.0000          111427.5028     -2940.5690      -808655.6030    -734861.6096    21606.4502      -6255306.1194   6159905.6758    

STAT_BOX_0      203             

MOVE_BOX_1      63050           900             1.4274          210000          

ENERGY_BOX_1    170104.3644     170104.3644     0.0000          0.0000          0.0000          0.0000          0.0000          0.0000          0.0000          0.0000          

STAT_BOX_1      647             

Steps/sec. : 1312.8379
MOVE_BOX_0      44059           21947           49.8128         0.3525          44211           22193           50.1979         0.8062          0               0               0.0000          65623           977             1.4888          220000          

ENERGY_BOX_0    -669611.2891    86831.6438      0.0000          107895.9037     -3298.4979      -861040.3388    -777023.8929    17078.3091      -6625077.9097   6523983.1547    

STAT_BOX_0      215             

MOVE_BOX_1      66107           942             1.4250          220000          

ENERGY_BOX_1    173475.1621     173475.1621     0.0000          0.0000          0.0000          0.0000          0.0000          0.0000          0.0000          0.0000          

STAT_BOX_1      635             

Steps/sec. : 1294.6098
MOVE_BOX_0      46025           22939           49.8403         0.3778          46234           23230           50.2444         0.9677          0               0               0.0000          68628           1013            1.4761          230000          

ENERGY_BOX_0    -599100.7843    93138.0098      0.0000          101180.0945     -3146.8633      -790272.0253    -712781.4945    21468.8638      -6471006.3304   6372046.9359    

STAT_BOX_0      210             

MOVE_BOX_1      69113           973             1.4078          230000          

ENERGY_BOX_1    176572.5794     176572.5794     0.0000          0.0000          0.0000          0.0000          0.0000          0.0000          0.0000          0.0000          

STAT_BOX_1      640             

Steps/sec. : 1254.7150
MOVE_BOX_0      48041           23922           49.7950         0.2937          48245           24235           50.2332         0.9342          0               0               0.0000          71632           1057            1.4756          240000          

ENERGY_BOX_0    -606551.2925    90765.1858      0.0000          87822.8279      -2940.5690      -782198.7373    -706133.3009    19725.4521      -6255306.1194   6159515.2309    

STAT_BOX_0      203             

MOVE_BOX_1      72082           1010            1.4012          240000          

ENERGY_BOX_1    178799.1570     178799.1570     0.0000          0.0000          0.0000          0.0000          0.0000          0.0000          0.0000          0.0000          

STAT_BOX_1      647             

Steps/sec. : 1210.3598
MOVE_BOX_0      50095           24980           49.8653         0.3804          50262           25246           50.2288         0.9469          0               0               0.0000          74580           1095            1.4682          250000          

ENERGY_BOX_0    -625404.9144    97467.2946      0.0000          95499.2048      -3207.0890      -815164.3248    -741241.9369    26842.8370      -6532634.9621   6431869.7372    

STAT_BOX_0      212             

MOVE_BOX_1      75063           1057            1.4082          250000          

ENERGY_BOX_1    178560.6771     178560.6771     0.0000          0.0000          0.0000          0.0000          0.0000          0.0000          0.0000          0.0000          

STAT_BOX_1      638             

Steps/sec. : 1239.0180
MOVE_BOX_0      52089           25963           49.8435         0.3207          52314           26259           50.1950         0.8323          0               0               0.0000          77518           1132            1.4603          260000          

ENERGY_BOX_0    -674724.8162    98296.0626      0.0000          107699.8651     -3237.4159      -877483.3281    -795451.1022    19727.2055      -6563449.2780   6461689.8467    

STAT_BOX_0      213             

MOVE_BOX_1      78079           1095            1.4024          260000          

ENERGY_BOX_1    176816.8942     176816.8942     0.0000          0.0000          0.0000          0.0000          0.0000          0.0000          0.0000          0.0000          

STAT_BOX_1      637             

Steps/sec. : 1201.5567
MOVE_BOX_0      54157           27009           49.8717         0.3573          54253           27235           50.2000         0.8785          0               0               0.0000          80487           1168            1.4512          270000          

ENERGY_BOX_0    -665091.4316    96930.5482      0.0000          104702.6907     -3087.2085      -863637.4620    -785840.9517    20889.4424      -6409377.6987   6310691.7460    

STAT_BOX_0      208             

MOVE_BOX_1      81103           1126            1.3884          270000          

ENERGY_BOX_1    180934.4202     180934.4202     0.0000          0.0000          0.0000          0.0000          0.0000          0.0000          0.0000          0.0000          

STAT_BOX_1      642             

Steps/sec. : 1227.2630
MOVE_BOX_0      56181           28005           49.8478         0.3042          56213           28214           50.1912         0.8446          0               0               0.0000          83520           1205            1.4428          280000          

ENERGY_BOX_0    -611195.9849    93008.6037      0.0000          110475.3926     -2911.6692      -811768.3121    -733977.4836    17957.2097      -6224491.8035   6128743.7654    

STAT_BOX_0      202             

MOVE_BOX_1      84086           1157            1.3760          280000          

ENERGY_BOX_1    182859.7037     182859.7037     0.0000          0.0000          0.0000          0.0000          0.0000          0.0000          0.0000          0.0000          

STAT_BOX_1      648             

Steps/sec. : 1252.1770
MOVE_BOX_0      58187           29025           49.8823         0.3567          58207           29225           50.2087         0.8764          0               0               0.0000          86504           1243            1.4369          290000          

ENERGY_BOX_0    -618124.8038    91660.0459      0.0000          123650.0644     -2911.6692      -830523.2449    -752934.1154    18283.5917      -6224491.8035   6128619.0823    

STAT_BOX_0      202             

MOVE_BOX_1      87102           1195            1.3720          290000          

ENERGY_BOX_1    185857.9539     185857.9539     0.0000          0.0000          0.0000          0.0000          0.0000          0.0000          0.0000          0.0000          

STAT_BOX_1      648             

Steps/sec. : 1247.1156
MOVE_BOX_0      60181           30030           49.8995         0.3757          60198           30229           50.2160         0.9287          0               0               0.0000          89473           1273            1.4228          300000          

ENERGY_BOX_0    -609730.9842    100906.8810     0.0000          108884.5375     -2998.7966      -816523.6060    -735527.3919    16910.3607      -6316934.7511   6219028.1763    

STAT_BOX_0      205             

MOVE_BOX_1      90148           1228            1.3622          300000          

ENERGY_BOX_1    184936.1657     184936.1657     0.0000          0.0000          0.0000          0.0000          0.0000          0.0000          0.0000          0.0000          

STAT_BOX_1      645             

Steps/sec. : 1270.4990
MOVE_BOX_0      62243           31059           49.8996         0.3556          62195           31225           50.2050         0.8874          0               0               0.0000          92411           1307            1.4143          310000          

ENERGY_BOX_0    -615509.2097    101033.8376     0.0000          83470.2421      -3057.5952      -796955.6942    -718089.4948    19803.1111      -6378563.3828   6279894.0724    

STAT_BOX_0      207             

MOVE_BOX_1      93151           1264            1.3569          310000          

ENERGY_BOX_1    186652.8925     186652.8925     0.0000          0.0000          0.0000          0.0000          0.0000          0.0000          0.0000          0.0000          

STAT_BOX_1      643             

Steps/sec. : 1233.5177
MOVE_BOX_0      64249           32053           49.8887         0.3148          64276           32266           50.1991         0.8430          0               0               0.0000          95352           1330            1.3948          320000          

ENERGY_BOX_0    -654450.8361    107752.0315     0.0000          85900.8941      -3516.7803      -844586.9813    -761138.1323    21864.2000      -6840778.1207   6735465.0717    

STAT_BOX_0      222             

MOVE_BOX_1      96123           1302            1.3545          320000          

ENERGY_BOX_1    187606.4706     187606.4706     0.0000          0.0000          0.0000          0.0000          0.0000          0.0000          0.0000          0.0000          

STAT_BOX_1      628             

Steps/sec. : 1231.4351
MOVE_BOX_0      66257           33073           49.9162         0.3489          66257           33269           50.2121         0.9382          0               0               0.0000          98351           1358            1.3808          330000          

ENERGY_BOX_0    -635012.6083    105013.4128     0.0000          100935.0511     -3422.3744      -837538.6978    -755523.8295    22199.6586      -6748335.1731   6644120.6462    

STAT_BOX_0      219             

MOVE_BOX_1      99135           1327            1.3386          330000          

ENERGY_BOX_1    190992.2361     190992.2361     0.0000          0.0000          0.0000          0.0000          0.0000          0.0000          0.0000          0.0000          

STAT_BOX_1      631             

Steps/sec. : 1200.6927
MOVE_BOX_0      68278           34077           49.9092         0.3189          68152           34222           50.2142         0.9226          0               0               0.0000          101440          1374            1.3545          340000          

ENERGY_BOX_0    -690158.5844    106016.0625     0.0000          136395.1192     -3676.9778      -928892.7883    -843181.1791    21932.4167      -6994849.7000   6887205.6741    

STAT_BOX_0      227             

MOVE_BOX_1      102130          1351            1.3228          340000          

ENERGY_BOX_1    186670.7806     186670.7806     0.0000          0.0000          0.0000          0.0000          0.0000          0.0000          0.0000          0.0000          

STAT_BOX_1      623             

Steps/sec. : 1210.3942
MOVE_BOX_0      70314           35102           49.9218         0.3259          70199           35237           50.1959         0.8339          0               0               0.0000          104360          1407            1.3482          350000          

ENERGY_BOX_0    -676571.9471    111058.5484     0.0000          138240.2205     -3548.5344      -922322.1816    -835790.8578    19047.0143      -6871592.4366   6766014.0985    

STAT_BOX_0      223             

MOVE_BOX_1      105127          1380            1.3127          350000          

ENERGY_BOX_1    183554.1693     183554.1693     0.0000          0.0000          0.0000          0.0000          0.0000          0.0000          0.0000          0.0000          

STAT_BOX_1      627             

Steps/sec. : 1238.1109
MOVE_BOX_0      72377           36130           49.9192         0.2984          72234           36255           50.1910         0.8120          0               0               0.0000          107258          1437            1.3398          360000          

ENERGY_BOX_0    -691395.8096    115770.7936     0.0000          149760.1273     -3580.4312      -953346.2994    -865682.9045    18718.6713      -6902406.7524   6796024.6863    

STAT_BOX_0      224             

MOVE_BOX_1      108131          1411            1.3049          360000          

ENERGY_BOX_1    190445.1299     190445.1299     0.0000          0.0000          0.0000          0.0000          0.0000          0.0000          0.0000          0.0000          

STAT_BOX_1      626             

Steps/sec. : 1212.8192
MOVE_BOX_0      74412           37156           49.9328         0.3047          74248           37271           50.1980         0.8821          0               0               0.0000          110261          1470            1.3332          370000          

ENERGY_BOX_0    -673207.3230    112791.5842     0.0000          129594.0453     -3485.1690      -912107.7836    -825566.8183    18135.3217      -6809963.8049   6705287.5179    

STAT_BOX_0      221             

MOVE_BOX_1      111079          1441            1.2973          370000          

ENERGY_BOX_1    194773.5859     194773.5859     0.0000          0.0000          0.0000          0.0000          0.0000          0.0000          0.0000          0.0000          

STAT_BOX_1      629             

Steps/sec. : 1200.2353
MOVE_BOX_0      76468           38189           49.9412         0.3053          76286           38287           50.1888         0.8310          0               0               0.0000          113264          1494            1.3190          380000          

ENERGY_BOX_0    -670918.9066    115600.2904     0.0000          122947.8619     -3548.5344      -905918.5245    -822791.0501    23042.8610      -6871592.4366   6765422.1012    

STAT_BOX_0      223             

MOVE_BOX_1      113982          1467            1.2870          380000          

ENERGY_BOX_1    192493.7887     192493.7887     0.0000          0.0000          0.0000          0.0000          0.0000          0.0000          0.0000          0.0000          

STAT_BOX_1      627             

Steps/sec. : 1200.1291
MOVE_BOX_0      78508           39220           49.9567         0.3146          78278           39289           50.1916         0.8594          0               0               0.0000          116274          1523            1.3098          390000          

ENERGY_BOX_0    -650778.7152    115046.4581     0.0000          111360.4468     -3453.7003      -873731.9197    -789678.0166    20486.6713      -6779149.4890   6674608.9146    

STAT_BOX_0      220             

MOVE_BOX_1      116940          1493            1.2767          390000          

ENERGY_BOX_1    193690.0217     193690.0217     0.0000          0.0000          0.0000          0.0000          0.0000          0.0000          0.0000          0.0000          

STAT_BOX_1      630             

Steps/sec. : 1117.0477
MOVE_BOX_0      80499           40247           49.9969         0.4033          80341           40310           50.1736         0.7768          0               0               0.0000          119198          1544            1.2953          400000          

ENERGY_BOX_0    -656652.4142    117279.9797     0.0000          108186.6757     -3580.4312      -878538.6384    -792263.1815    20394.1639      -6902406.7524   6795737.1316    

STAT_BOX_0      224             

MOVE_BOX_1      119962          1518            1.2654          400000          

ENERGY_BOX_1    189259.0497     189259.0497     0.0000          0.0000          0.0000          0.0000          0.0000          0.0000          0.0000          0.0000          

STAT_BOX_1      626             

Steps/sec. : 1222.3144
MOVE_BOX_0      82455           41207           49.9751         0.3169          82360           41345           50.2003         0.9367          0               0               0.0000          122211          1572            1.2863          410000          

ENERGY_BOX_0    -634949.6212    115627.3723     0.0000          139845.6932     -3360.1507      -887062.5358    -801306.4051    17419.7040      -6686706.5414   6583530.7067    

STAT_BOX_0      217             

MOVE_BOX_1      122974          1539            1.2515          410000          

ENERGY_BOX_1    187220.6980     187220.6980     0.0000          0.0000          0.0000          0.0000          0.0000          0.0000          0.0000          0.0000          

STAT_BOX_1      633             

Steps/sec. : 1214.0151
MOVE_BOX_0      84482           42238           49.9964         0.3544          84364           42345           50.1932         0.8912          0               0               0.0000          125230          1605            1.2816          420000          

ENERGY_BOX_0    -622880.9714    116827.4833     0.0000          107943.1788     -3298.4979      -844353.1356    -763388.0799    20504.6460      -6625077.9097   6523608.2080    

STAT_BOX_0      215             

MOVE_BOX_1      125924          1570            1.2468          420000          

ENERGY_BOX_1    193216.9010     193216.9010     0.0000          0.0000          0.0000          0.0000          0.0000          0.0000          0.0000          0.0000          

STAT_BOX_1      635             

Steps/sec. : 1194.6369
MOVE_BOX_0      86494           43256           50.0104         0.3967          86355           43341           50.1893         0.8845          0               0               0.0000          128180          1648            1.2857          430000          

ENERGY_BOX_0    -602792.9450    112963.1729     0.0000          110504.4384     -3207.0890      -823053.4674    -739389.9051    17852.1516      -6532634.9621   6431119.2483    

STAT_BOX_0      212             

MOVE_BOX_1      128971          1610            1.2483          430000          

ENERGY_BOX_1    192938.1865     192938.1865     0.0000          0.0000          0.0000          0.0000          0.0000          0.0000          0.0000          0.0000          

STAT_BOX_1      638             

Steps/sec. : 1237.4190
MOVE_BOX_0      88472           44241           50.0057         0.3636          88353           44345           50.1907         0.8834          0               0               0.0000          131182          1677            1.2784          440000          

ENERGY_BOX_0    -642678.1119    116835.4448     0.0000          101754.2220     -3237.4159      -858030.3627    -778212.0480    22745.8754      -6563449.2780   6460885.0878    

STAT_BOX_0      213             

MOVE_BOX_1      131993          1640            1.2425          440000          

ENERGY_BOX_1    185507.1202     185507.1202     0.0000          0.0000          0.0000          0.0000          0.0000          0.0000          0.0000          0.0000          

STAT_BOX_1      637             

Steps/sec. : 1217.6410
MOVE_BOX_0      90438           45239           50.0221         0.4135          90327           45323           50.1766         0.7673          0               0               0.0000          134157          1707            1.2724          450000          

ENERGY_BOX_0    -671428.7106    120068.9574     0.0000          94354.9223      -3422.3744      -882430.2159    -795301.3536    18214.8696      -6748335.1731   6642991.4412    

STAT_BOX_0      219             

MOVE_BOX_1      135078          1676            1.2408          450000          

ENERGY_BOX_1    183894.3590     183894.3590     0.0000          0.0000          0.0000          0.0000          0.0000          0.0000          0.0000          0.0000          

STAT_BOX_1      631             

Steps/sec. : 1202.8471
MOVE_BOX_0      92469           46236           50.0016         0.3337          92262           46315           50.1994         0.9069          0               0               0.0000          137165          1738            1.2671          460000          

ENERGY_BOX_0    -649208.7268    111045.2048     0.0000          103736.0530     -3298.4979      -860691.4867    -773375.3870    16095.8771      -6625077.9097   6521665.9330    

STAT_BOX_0      215             

MOVE_BOX_1      138104          1703            1.2331          460000          

ENERGY_BOX_1    188328.2473     188328.2473     0.0000          0.0000          0.0000          0.0000          0.0000          0.0000          0.0000          0.0000          

STAT_BOX_1      635             

Steps/sec. : 1173.4768
MOVE_BOX_0      94511           47260           50.0048         0.3418          94221           47299           50.2001         0.8767          0               0               0.0000          140104          1763            1.2584          470000          

ENERGY_BOX_0    -684842.9792    109243.0844     0.0000          105545.1299     -3422.3744      -896208.8190    -808543.5350    18349.3257      -6748335.1731   6642320.5635    

STAT_BOX_0      219             

MOVE_BOX_1      141164          1732            1.2269          470000          

ENERGY_BOX_1    188466.1409     188466.1409     0.0000          0.0000          0.0000          0.0000          0.0000          0.0000          0.0000          0.0000          

STAT_BOX_1      631             

Steps/sec. : 1233.6515
MOVE_BOX_0      96504           48255           50.0031         0.3230          96216           48289           50.1881         0.8036          0               0               0.0000          143200          1783            1.2451          480000          

ENERGY_BOX_0    -724368.6798    112271.5854     0.0000          112207.3132     -3485.1690      -945362.4094    -855020.1242    16283.1954      -6809963.8049   6703338.3242    

STAT_BOX_0      221             

MOVE_BOX_1      144080          1754            1.2174          480000          

ENERGY_BOX_1    188656.7272     188656.7272     0.0000          0.0000          0.0000          0.0000          0.0000          0.0000          0.0000          0.0000          

STAT_BOX_1      629             

Steps/sec. : 1188.6729
MOVE_BOX_0      98455           49226           49.9985         0.2824          98212           49293           50.1904         0.8084          0               0               0.0000          146262          1809            1.2368          490000          

ENERGY_BOX_0    -709304.8130    111139.3710     0.0000          119923.0598     -3580.4312      -936786.8127    -850211.1953    20919.0989      -6902406.7524   6794912.0362    

STAT_BOX_0      224             

MOVE_BOX_1      147071          1783            1.2123          490000          

ENERGY_BOX_1    186337.5024     186337.5024     0.0000          0.0000          0.0000          0.0000          0.0000          0.0000          0.0000          0.0000          

STAT_BOX_1      626             

Steps/sec. : 1201.1172
MOVE_BOX_0      100459          50256           50.0264         0.3651          100231          50308           50.1921         0.8230          0               0               0.0000          149233          1828            1.2249          500000          

ENERGY_BOX_0    -711286.0876    107668.9164     0.0000          127377.4529     -3709.4454      -942623.0115    -849693.4800    15868.8731      -7025664.0159   6916865.6112    

STAT_BOX_0      228             

MOVE_BOX_1      150077          1806            1.2034          500000          

ENERGY_BOX_1    186622.2691     186622.2691     0.0000          0.0000          0.0000          0.0000          0.0000          0.0000          0.0000          0.0000          

STAT_BOX_1      622             

Steps/sec. : 1265.3331
MOVE_BOX_0      102487          51281           50.0366         0.3805          102276          51334           50.1916         0.8062          0               0               0.0000          152206          1854            1.2181          510000          

ENERGY_BOX_0    -739482.2631    107613.4649     0.0000          132042.2632     -3807.7046      -975330.2865    -881801.8520    16037.0419      -7118106.9635   7008541.4870    

STAT_BOX_0      231             

MOVE_BOX_1      153031          1835            1.1991          510000          

ENERGY_BOX_1    192583.3467     192583.3467     0.0000          0.0000          0.0000          0.0000          0.0000          0.0000          0.0000          0.0000          

STAT_BOX_1      619             

Steps/sec. : 1286.5168
MOVE_BOX_0      104521          52296           50.0340         0.3607          104236          52331           50.2043         0.9209          0               0               0.0000          155260          1869            1.2038          520000          

ENERGY_BOX_0    -771263.9773    106777.2117     0.0000          109955.6253     -4076.0086      -983920.8057    -889175.0530    18629.2087      -7364621.4903   7251246.5289    

STAT_BOX_0      239             

MOVE_BOX_1      155983          1858            1.1912          520000          

ENERGY_BOX_1    190904.9887     190904.9887     0.0000          0.0000          0.0000          0.0000          0.0000          0.0000          0.0000          0.0000          

STAT_BOX_1      611             

Steps/sec. : 1237.0717
MOVE_BOX_0      106512          53290           50.0319         0.3462          106254          53346           50.2061         0.9503          0               0               0.0000          158210          1887            1.1927          530000          

ENERGY_BOX_0    -753280.0876    108322.0872     0.0000          127164.7926     -3873.9243      -984893.0431    -891635.3518    17431.6686      -7179735.5952   7069046.2352    

STAT_BOX_0      233             

MOVE_BOX_1      159024          1870            1.1759          530000          

ENERGY_BOX_1    192872.1779     192872.1779     0.0000          0.0000          0.0000          0.0000          0.0000          0.0000          0.0000          0.0000          

STAT_BOX_1      617             

Steps/sec. : 1242.4150
MOVE_BOX_0      108504          54296           50.0406         0.3680          108237          54326           50.1917         0.8375          0               0               0.0000          161241          1923            1.1926          540000          

ENERGY_BOX_0    -661257.8264    107266.0347     0.0000          112714.1516     -3485.1690      -877752.8436    -791894.4998    18853.9540      -6809963.8049   6705251.5070    

STAT_BOX_0      221             

MOVE_BOX_1      162018          1894            1.1690          540000          

ENERGY_BOX_1    201831.6794     201831.6794     0.0000          0.0000          0.0000          0.0000          0.0000          0.0000          0.0000          0.0000          

STAT_BOX_1      629             

Steps/sec. : 1246.0603
MOVE_BOX_0      110517          55295           50.0330         0.3326          110146          55278           50.1861         0.7856          0               0               0.0000          164278          1957            1.1913          550000          

ENERGY_BOX_0    -681555.1269    105850.3158     0.0000          116031.0407     -3516.7803      -899919.7030    -816088.4161    20843.3485      -6840778.1207   6736103.4852    

STAT_BOX_0      222             

MOVE_BOX_1      165059          1929            1.1687          550000          

ENERGY_BOX_1    191886.9994     191886.9994     0.0000          0.0000          0.0000          0.0000          0.0000          0.0000          0.0000          0.0000          

STAT_BOX_1      628             

Steps/sec. : 994.4075
MOVE_BOX_0      112585          56339           50.0413         0.3506          112088          56258           50.1909         0.8294          0               0               0.0000          167294          1986            1.1871          560000          

ENERGY_BOX_0    -673180.3801    104003.1368     0.0000          122241.7351     -3298.4979      -896126.7541    -816653.8058    21555.2286      -6625077.9097   6524049.7328    

STAT_BOX_0      215             

MOVE_BOX_1      168033          1951            1.1611          560000          

ENERGY_BOX_1    199710.1698     199710.1698     0.0000          0.0000          0.0000          0.0000          0.0000          0.0000          0.0000          0.0000          

STAT_BOX_1      635             

Steps/sec. : 1055.3167
MOVE_BOX_0      114617          57361           50.0458         0.3369          114078          57253           50.1876         0.8035          0               0               0.0000          170266          2010            1.1805          570000          

ENERGY_BOX_0    -703716.5049    105536.7548     0.0000          114071.1420     -3548.5344      -919775.8673    -834575.6341    19668.7313      -6871592.4366   6766723.4722    

STAT_BOX_0      223             

MOVE_BOX_1      171039          1983            1.1594          570000          

ENERGY_BOX_1    193749.6112     193749.6112     0.0000          0.0000          0.0000          0.0000          0.0000          0.0000          0.0000          0.0000          

STAT_BOX_1      627             

Steps/sec. : 1312.9201
MOVE_BOX_0      116652          58384           50.0497         0.3470          115989          58224           50.1979         0.8883          0               0               0.0000          173357          2048            1.1814          580000          

ENERGY_BOX_0    -675772.1798    103006.6456     0.0000          130007.2387     -3485.1690      -905300.8951    -820890.3401    19401.6622      -6809963.8049   6706151.5876    

STAT_BOX_0      221             

MOVE_BOX_1      174002          2019            1.1603          580000          

ENERGY_BOX_1    193883.7728     193883.7728     0.0000          0.0000          0.0000          0.0000          0.0000          0.0000          0.0000          0.0000          

STAT_BOX_1      629             

Steps/sec. : 1282.4583
MOVE_BOX_0      118588          59356           50.0523         0.3635          118023          59240           50.1936         0.8701          0               0               0.0000          176384          2091            1.1855          590000          

ENERGY_BOX_0    -610178.8035    104238.9917     0.0000          128295.9177     -3146.8633      -839566.8496    -761145.8408    20271.7717      -6471006.3304   6372313.5499    

STAT_BOX_0      210             

MOVE_BOX_1      177005          2051            1.1587          590000          

ENERGY_BOX_1    197188.6717     197188.6717     0.0000          0.0000          0.0000          0.0000          0.0000          0.0000          0.0000          0.0000          

STAT_BOX_1      640             

Steps/sec. : 1301.7440
MOVE_BOX_0      120574          60346           50.0489         0.3296          120012          60240           50.1950         0.8773          0               0               0.0000          179440          2122            1.1826          600000          

ENERGY_BOX_0    -589221.4304    103420.4852     0.0000          111254.0046     -3237.4159      -800658.5043    -720346.3096    20071.4493      -6563449.2780   6463065.6340    

STAT_BOX_0      213             

MOVE_BOX_1      179974          2085            1.1585          600000          

ENERGY_BOX_1    196940.5576     196940.5576     0.0000          0.0000          0.0000          0.0000          0.0000          0.0000          0.0000          0.0000          

STAT_BOX_1      637             

Steps/sec. : 608.5820
MOVE_BOX_0      122547          61343           50.0567         0.3447          121991          61225           50.1881         0.8255          0               0               0.0000          182411          2154            1.1808          610000          

ENERGY_BOX_0    -671732.1573    106925.1004     0.0000          119579.7929     -3329.2530      -894907.7976    -810958.7836    18624.5372      -6655892.2256   6553318.6743    

STAT_BOX_0      216             

MOVE_BOX_1      183051          2120            1.1581          610000          

ENERGY_BOX_1    198917.4941     198917.4941     0.0000          0.0000          0.0000          0.0000          0.0000          0.0000          0.0000          0.0000          

STAT_BOX_1      634             

Steps/sec. : 1280.3371
MOVE_BOX_0      124570          62362           50.0618         0.3696          123988          62233           50.1928         0.8693          0               0               0.0000          185404          2190            1.1812          620000          

ENERGY_BOX_0    -633914.1314    101424.9068     0.0000          117133.8217     -3207.0890      -849265.7709    -769494.0317    20423.7012      -6532634.9621   6432439.5218    

STAT_BOX_0      212             

MOVE_BOX_1      186038          2152            1.1568          620000          

ENERGY_BOX_1    200532.7544     200532.7544     0.0000          0.0000          0.0000          0.0000          0.0000          0.0000          0.0000          0.0000          

STAT_BOX_1      638             

Steps/sec. : 1314.4513
MOVE_BOX_0      126620          63378           50.0537         0.3353          126006          63236           50.1849         0.7687          0               0               0.0000          188355          2216            1.1765          630000          

ENERGY_BOX_0    -688693.1044    108096.2362     0.0000          117083.7579     -3422.3744      -910450.7240    -824355.5594    17691.0073      -6748335.1731   6644549.0014    

STAT_BOX_0      219             

MOVE_BOX_1      189019          2185            1.1560          630000          

ENERGY_BOX_1    200994.2338     200994.2338     0.0000          0.0000          0.0000          0.0000          0.0000          0.0000          0.0000          0.0000          

STAT_BOX_1      631             

Steps/sec. : 1325.8896
MOVE_BOX_0      128680          64418           50.0606         0.3604          127977          64232           50.1903         0.8432          0               0               0.0000          191292          2246            1.1741          640000          

ENERGY_BOX_0    -660380.9950    104441.3260     0.0000          110281.2638     -3207.0890      -871896.4958    -790980.6016    20357.0882      -6532634.9621   6431361.9798    

STAT_BOX_0      212             

MOVE_BOX_1      192051          2208            1.1497          640000          

ENERGY_BOX_1    198775.4176     198775.4176     0.0000          0.0000          0.0000          0.0000          0.0000          0.0000          0.0000          0.0000          

STAT_BOX_1      638             

Steps/sec. : 1326.0332
MOVE_BOX_0      130735          65453           50.0654         0.3686          129942          65211           50.1847         0.7803          0               0               0.0000          194264          2272            1.1695          650000          

ENERGY_BOX_0    -656216.0977    104765.6445     0.0000          97114.7463      -3237.4159      -854859.0726    -772868.4762    20098.3659      -6563449.2780   6461360.3156    

STAT_BOX_0      213             

MOVE_BOX_1      195059          2235            1.1458          650000          

ENERGY_BOX_1    200536.2879     200536.2879     0.0000          0.0000          0.0000          0.0000          0.0000          0.0000          0.0000          0.0000          

STAT_BOX_1      637             

Steps/sec. : 1331.5494
MOVE_BOX_0      132724          66453           50.0686         0.3800          131963          66243           50.1982         0.9269          0               0               0.0000          197299          2300            1.1657          660000          

ENERGY_BOX_0    -626285.5936    110791.0145     0.0000          101689.4560     -3207.0890      -835558.9751    -749272.7384    15012.7036      -6532634.9621   6431336.0218    

STAT_BOX_0      212             

MOVE_BOX_1      198014          2262            1.1423          660000          

ENERGY_BOX_1    200634.8388     200634.8388     0.0000          0.0000          0.0000          0.0000          0.0000          0.0000          0.0000          0.0000          

STAT_BOX_1      638             

Steps/sec. : 1337.8780
MOVE_BOX_0      134705          67449           50.0716         0.3906          133926          67227           50.1971         0.9298          0               0               0.0000          200277          2331            1.1639          670000          

ENERGY_BOX_0    -615868.8969    102316.4105     0.0000          110262.1552     -3116.9646      -825330.4980    -746026.3396    20890.5699      -6440192.0146   6339997.2863    

STAT_BOX_0      209             

MOVE_BOX_1      201092          2290            1.1388          670000          

ENERGY_BOX_1    200506.6831     200506.6831     0.0000          0.0000          0.0000          0.0000          0.0000          0.0000          0.0000          0.0000          

STAT_BOX_1      641             

Steps/sec. : 1300.0385
MOVE_BOX_0      136665          68430           50.0713         0.3708          135831          68190           50.2021         0.9992          0               0               0.0000          203313          2367            1.1642          680000          

ENERGY_BOX_0    -601029.5781    102743.5438     0.0000          102329.3273     -3028.1245      -803074.3247    -724598.6794    20434.8696      -6347749.0670   6248838.5521    

STAT_BOX_0      206             

MOVE_BOX_1      204191          2323            1.1377          680000          

ENERGY_BOX_1    198531.1511     198531.1511     0.0000          0.0000          0.0000          0.0000          0.0000          0.0000          0.0000          0.0000          

STAT_BOX_1      644             

Steps/sec. : 1315.8648
MOVE_BOX_0      138724          69449           50.0627         0.3335          137788          69170           50.2003         0.9600          0               0               0.0000          206394          2395            1.1604          690000          

ENERGY_BOX_0    -623850.4395    106704.0690     0.0000          103569.5046     -3237.4159      -830886.5972    -750890.7676    21741.0042      -6563449.2780   6461712.4441    

STAT_BOX_0      213             

MOVE_BOX_1      207094          2358            1.1386          690000          

ENERGY_BOX_1    197253.2287     197253.2287     0.0000          0.0000          0.0000          0.0000          0.0000          0.0000          0.0000          0.0000          

STAT_BOX_1      637             

Steps/sec. : 1325.9999
MOVE_BOX_0      140665          70432           50.0707         0.3611          139856          70198           50.1931         0.8927          0               0               0.0000          209392          2430            1.1605          700000          

ENERGY_BOX_0    -609176.1981    106314.3578     0.0000          123793.7712     -2998.7966      -836285.5304    -758506.5474    19898.1890      -6316934.7511   6219257.5791    

STAT_BOX_0      205             

MOVE_BOX_1      210087          2385            1.1352          700000          

ENERGY_BOX_1    196741.3818     196741.3818     0.0000          0.0000          0.0000          0.0000          0.0000          0.0000          0.0000          0.0000          

STAT_BOX_1      645             

Steps/sec. : 1324.1131
MOVE_BOX_0      142564          71386           50.0729         0.3638          141842          71199           50.1960         0.9267          0               0               0.0000          212458          2458            1.1569          710000          

ENERGY_BOX_0    -628949.0588    110554.5944     0.0000          114535.0543     -3146.8633      -850891.8441    -773726.9815    22530.7696      -6471006.3304   6371310.6982    

STAT_BOX_0      210             

MOVE_BOX_1      213136          2418            1.1345          710000          

ENERGY_BOX_1    196544.7634     196544.7634     0.0000          0.0000          0.0000          0.0000          0.0000          0.0000          0.0000          0.0000          

STAT_BOX_1      640             

Steps/sec. : 1333.6458
MOVE_BOX_0      144614          72418           50.0768         0.3594          143884          72215           50.1897         0.8453          0               0               0.0000          215430          2474            1.1484          720000          

ENERGY_BOX_0    -684716.3654    109378.3472     0.0000          85073.6106      -3485.1690      -875683.1542    -788223.2749    17471.3646      -6809963.8049   6705032.5610    

STAT_BOX_0      221             

MOVE_BOX_1      216072          2445            1.1316          720000          

ENERGY_BOX_1    193286.9071     193286.9071     0.0000          0.0000          0.0000          0.0000          0.0000          0.0000          0.0000          0.0000          

STAT_BOX_1      629             

Steps/sec. : 1328.9764
MOVE_BOX_0      146593          73402           50.0720         0.2933          145892          73228           50.1933         0.8651          0               0               0.0000          218481          2499            1.1438          730000          

ENERGY_BOX_0    -662919.7732    108555.2814     0.0000          108098.5289     -3329.2530      -876244.3305    -792133.3383    19351.1238      -6655892.2256   6552430.1097    

STAT_BOX_0      216             

MOVE_BOX_1      219034          2465            1.1254          730000          

ENERGY_BOX_1    195231.5066     195231.5066     0.0000          0.0000          0.0000          0.0000          0.0000          0.0000          0.0000          0.0000          

STAT_BOX_1      634             

Steps/sec. : 1269.4354
MOVE_BOX_0      148565          74402           50.0804         0.3264          147883          74228           50.1937         0.8885          0               0               0.0000          221531          2517            1.1362          740000          

ENERGY_BOX_0    -713924.4767    113019.4990     0.0000          112202.3362     -3709.4454      -935436.8664    -845264.1214    18279.1587      -7025664.0159   6917212.1121    

STAT_BOX_0      228             

MOVE_BOX_1      222021          2495            1.1238          740000          

ENERGY_BOX_1    191827.4788     191827.4788     0.0000          0.0000          0.0000          0.0000          0.0000          0.0000          0.0000          0.0000          

STAT_BOX_1      622             

Steps/sec. : 1271.1670
MOVE_BOX_0      150618          75421           50.0744         0.3009          149882          75230           50.1928         0.8772          0               0               0.0000          224512          2543            1.1327          750000          

ENERGY_BOX_0    -687297.4177    109299.1958     0.0000          137633.5232     -3580.4312      -930649.7055    -841744.1807    17763.9938      -6902406.7524   6795737.2339    

STAT_BOX_0      224             

MOVE_BOX_1      224988          2517            1.1187          750000          

ENERGY_BOX_1    196623.2492     196623.2492     0.0000          0.0000          0.0000          0.0000          0.0000          0.0000          0.0000          0.0000          

STAT_BOX_1      626             

Steps/sec. : 1275.1664
MOVE_BOX_0      152616          76438           50.0852         0.3430          151832          76198           50.1857         0.7914          0               0               0.0000          227541          2571            1.1299          760000          

ENERGY_BOX_0    -706419.2627    107697.1292     0.0000          124765.1472     -3548.5344      -935333.0047    -847421.1810    18583.8219      -6871592.4366   6765096.7910    

STAT_BOX_0      223             

MOVE_BOX_1      228011          2544            1.1157          760000          

ENERGY_BOX_1    200069.8025     200069.8025     0.0000          0.0000          0.0000          0.0000          0.0000          0.0000          0.0000          0.0000          

STAT_BOX_1      627             

Steps/sec. : 1231.8379
MOVE_BOX_0      154539          77404           50.0870         0.3456          153831          77198           50.1836         0.7828          0               0               0.0000          230590          2595            1.1254          770000          

ENERGY_BOX_0    -733901.2942    104729.7881     0.0000          107564.7284     -3676.9778      -942518.8330    -853075.7226    18819.5498      -6994849.7000   6886587.0398    

STAT_BOX_0      227             

MOVE_BOX_1      231040          2572            1.1132          770000          

ENERGY_BOX_1    199621.7676     199621.7676     0.0000          0.0000          0.0000          0.0000          0.0000          0.0000          0.0000          0.0000          

STAT_BOX_1      623             

Steps/sec. : 1279.3664
MOVE_BOX_0      156505          78398           50.0930         0.3626          155789          78183           50.1852         0.8096          0               0               0.0000          233626          2617            1.1202          780000          

ENERGY_BOX_0    -686533.8300    98430.5532      0.0000          80477.2792      -3485.1690      -861956.4934    -773747.3195    16951.5348      -6809963.8049   6704803.0962    

STAT_BOX_0      221             

MOVE_BOX_1      234080          2588            1.1056          780000          

ENERGY_BOX_1    198469.7643     198469.7643     0.0000          0.0000          0.0000          0.0000          0.0000          0.0000          0.0000          0.0000          

STAT_BOX_1      629             

Steps/sec. : 1268.6461
MOVE_BOX_0      158502          79398           50.0927         0.3582          157804          79211           50.1958         0.9130          0               0               0.0000          236629          2649            1.1195          790000          

ENERGY_BOX_0    -658542.7229    96603.2351      0.0000          110432.6937     -3360.1507      -862218.5009    -780872.5902    22014.5253      -6686706.5414   6583346.1054    

STAT_BOX_0      217             

MOVE_BOX_1      237065          2616            1.1035          790000          

ENERGY_BOX_1    195743.2632     195743.2632     0.0000          0.0000          0.0000          0.0000          0.0000          0.0000          0.0000          0.0000          

STAT_BOX_1      633             

Steps/sec. : 1290.2640
MOVE_BOX_0      160518          80399           50.0872         0.3157          159857          80231           50.1892         0.8307          0               0               0.0000          239584          2680            1.1186          800000          

ENERGY_BOX_0    -663805.8555    99135.5617      0.0000          109493.3721     -3360.1507      -869074.6385    -785575.6170    19986.3291      -6686706.5414   6583221.1908    

STAT_BOX_0      217             

MOVE_BOX_1      240041          2647            1.1027          800000          

ENERGY_BOX_1    200390.9432     200390.9432     0.0000          0.0000          0.0000          0.0000          0.0000          0.0000          0.0000          0.0000          

STAT_BOX_1      633             

Steps/sec. : 1296.9679
MOVE_BOX_0      162528          81416           50.0935         0.3314          161836          81224           50.1891         0.8354          0               0               0.0000          242595          2704            1.1146          810000          

ENERGY_BOX_0    -694243.8648    102951.5055     0.0000          113187.2819     -3644.6529      -906737.9994    -820675.0493    21400.9178      -6964035.3842   6856571.5163    

STAT_BOX_0      226             

MOVE_BOX_1      243041          2680            1.1027          810000          

ENERGY_BOX_1    188972.3439     188972.3439     0.0000          0.0000          0.0000          0.0000          0.0000          0.0000          0.0000          0.0000          

STAT_BOX_1      624             

Steps/sec. : 1275.7684
MOVE_BOX_0      164540          82427           50.0954         0.3389          163895          82262           50.1919         0.8856          0               0               0.0000          245543          2731            1.1122          820000          

ENERGY_BOX_0    -658378.7602    103302.1722     0.0000          148564.5020     -3580.4312      -906665.0032    -821538.3280    21505.3678      -6902406.7524   6795774.7094    

STAT_BOX_0      224             

MOVE_BOX_1      246022          2705            1.0995          820000          

ENERGY_BOX_1    190438.0039     190438.0039     0.0000          0.0000          0.0000          0.0000          0.0000          0.0000          0.0000          0.0000          

STAT_BOX_1      626             

Steps/sec. : 1282.0633
MOVE_BOX_0      166600          83450           50.0900         0.3021          165881          83258           50.1914         0.8739          0               0               0.0000          248547          2768            1.1137          830000          

ENERGY_BOX_0    -647914.8704    105026.2695     0.0000          145701.2275     -3329.2530      -895313.1144    -812091.7765    19416.7509      -6655892.2256   6553254.1368    

STAT_BOX_0      216             

MOVE_BOX_1      248972          2734            1.0981          830000          

ENERGY_BOX_1    190920.0079     190920.0079     0.0000          0.0000          0.0000          0.0000          0.0000          0.0000          0.0000          0.0000          

STAT_BOX_1      634             

Steps/sec. : 1301.6464
MOVE_BOX_0      168562          84466           50.1098         0.3988          167890          84262           50.1888         0.8443          0               0               0.0000          251587          2803            1.1141          840000          

ENERGY_BOX_0    -621587.5392    106017.7018     0.0000          113193.3055     -3116.9646      -837681.5820    -756504.3324    18429.3629      -6440192.0146   6340585.4021    

STAT_BOX_0      209             

MOVE_BOX_1      251961          2762            1.0962          840000          

ENERGY_BOX_1    197809.6541     197809.6541     0.0000          0.0000          0.0000          0.0000          0.0000          0.0000          0.0000          0.0000          

STAT_BOX_1      641             

Steps/sec. : 1315.7538
MOVE_BOX_0      170564          85453           50.1003         0.3225          169869          85258           50.1904         0.8956          0               0               0.0000          254624          2826            1.1099          850000          

ENERGY_BOX_0    -665058.7620    95947.3455      0.0000          100734.7902     -3267.8856      -858473.0122    -777245.9352    20634.5359      -6594263.5939   6492401.9809    

STAT_BOX_0      214             

MOVE_BOX_1      254943          2790            1.0944          850000          

ENERGY_BOX_1    198149.2101     198149.2101     0.0000          0.0000          0.0000          0.0000          0.0000          0.0000          0.0000          0.0000          

STAT_BOX_1      636             

Steps/sec. : 1301.4907
MOVE_BOX_0      172617          86495           50.1080         0.3632          171824          86229           50.1845         0.8204          0               0               0.0000          257666          2865            1.1119          860000          

ENERGY_BOX_0    -645673.7633    99825.1466      0.0000          118663.6300     -3329.2530      -860833.2869    -778015.9230    20373.1144      -6655892.2256   6552701.7473    

STAT_BOX_0      216             

MOVE_BOX_1      257893          2831            1.0977          860000          

ENERGY_BOX_1    204647.3905     204647.3905     0.0000          0.0000          0.0000          0.0000          0.0000          0.0000          0.0000          0.0000          

STAT_BOX_1      634             

Steps/sec. : 1326.0909
MOVE_BOX_0      174633          87506           50.1085         0.3674          173800          87235           50.1928         0.9330          0               0               0.0000          260661          2904            1.1141          870000          

ENERGY_BOX_0    -594909.5941    101195.3106     0.0000          110552.7315     -3028.1245      -803629.5116    -724906.7669    19604.3789      -6347749.0670   6249421.9433    

STAT_BOX_0      206             

MOVE_BOX_1      260906          2860            1.0962          870000          

ENERGY_BOX_1    205105.4352     205105.4352     0.0000          0.0000          0.0000          0.0000          0.0000          0.0000          0.0000          0.0000          

STAT_BOX_1      644             

Steps/sec. : 1324.5740
MOVE_BOX_0      176626          88510           50.1115         0.3768          175756          88218           50.1935         0.9465          0               0               0.0000          263681          2943            1.1161          880000          

ENERGY_BOX_0    -636225.1369    102135.3097     0.0000          119366.2878     -3298.4979      -854428.2366    -773462.7725    22180.5726      -6625077.9097   6521931.8731    

STAT_BOX_0      215             

MOVE_BOX_1      263937          2908            1.1018          880000          

ENERGY_BOX_1    209870.8521     209870.8521     0.0000          0.0000          0.0000          0.0000          0.0000          0.0000          0.0000          0.0000          

STAT_BOX_1      635             

Steps/sec. : 1362.0601
MOVE_BOX_0      178677          89533           50.1089         0.3523          177779          89234           50.1938         0.9045          0               0               0.0000          266590          2963            1.1114          890000          

ENERGY_BOX_0    -702673.6830    107204.8963     0.0000          108154.0173     -3612.4707      -914420.1259    -826134.6599    19651.8242      -6933221.0683   6825283.7782    

STAT_BOX_0      225             

MOVE_BOX_1      266954          2938            1.1006          890000          

ENERGY_BOX_1    204184.3070     204184.3070     0.0000          0.0000          0.0000          0.0000          0.0000          0.0000          0.0000          0.0000          

STAT_BOX_1      625             

Steps/sec. : 1315.8918
MOVE_BOX_0      180614          90508           50.1113         0.3522          179831          90266           50.1949         0.8924          0               0               0.0000          269576          2989            1.1088          900000          

ENERGY_BOX_0    -717716.7611    107588.0475     0.0000          121646.3929     -3644.6529      -943306.5486    -852162.0702    17099.7377      -6964035.3842   6855791.1680    

STAT_BOX_0      226             

MOVE_BOX_1      269979          2965            1.0982          900000          

ENERGY_BOX_1    206270.0925     206270.0925     0.0000          0.0000          0.0000          0.0000          0.0000          0.0000          0.0000          0.0000          

STAT_BOX_1      624             

Steps/sec. : 1291.2214
MOVE_BOX_0      182597          91507           50.1142         0.3517          181801          91257           50.1961         0.9050          0               0               0.0000          272577          3020            1.1079          910000          

ENERGY_BOX_0    -680137.7827    111438.8540     0.0000          108033.5477     -3548.5344      -896061.6501    -811076.8750    21689.9673      -6871592.4366   6764917.6941    

STAT_BOX_0      223             

MOVE_BOX_1      273025          2993            1.0962          910000          

ENERGY_BOX_1    209689.4599     209689.4599     0.0000          0.0000          0.0000          0.0000          0.0000          0.0000          0.0000          0.0000          

STAT_BOX_1      627             

Steps/sec. : 1293.6778
MOVE_BOX_0      184561          92488           50.1124         0.3473          183784          92244           50.1915         0.8469          0               0               0.0000          275593          3034            1.1009          920000          

ENERGY_BOX_0    -744898.6759    120290.9926     0.0000          118734.1087     -4041.9711      -979881.8060    -882394.1922    16356.6678      -7333807.1745   7219962.8928    

STAT_BOX_0      238             

MOVE_BOX_1      276062          3022            1.0947          920000          

ENERGY_BOX_1    205773.0234     205773.0234     0.0000          0.0000          0.0000          0.0000          0.0000          0.0000          0.0000          0.0000          

STAT_BOX_1      612             

Steps/sec. : 1250.0197
MOVE_BOX_0      186527          93485           50.1187         0.3904          185824          93261           50.1878         0.7874          0               0               0.0000          278616          3062            1.0990          930000          

ENERGY_BOX_0    -722663.9342    114816.3200     0.0000          105681.7257     -3840.7431      -939321.2368    -847747.1076    19641.9933      -7148921.2793   7037705.1568    

STAT_BOX_0      232             

MOVE_BOX_1      279033          3044            1.0909          930000          

ENERGY_BOX_1    206049.7151     206049.7151     0.0000          0.0000          0.0000          0.0000          0.0000          0.0000          0.0000          0.0000          

STAT_BOX_1      618             

Steps/sec. : 1250.0750
MOVE_BOX_0      188543          94500           50.1212         0.3801          187772          94260           50.1992         0.9396          0               0               0.0000          281644          3090            1.0971          940000          

ENERGY_BOX_0    -680913.2379    110801.3386     0.0000          90150.5511      -3485.1690      -878379.9586    -791573.6941    19781.5260      -6809963.8049   6703376.0144    

STAT_BOX_0      221             

MOVE_BOX_1      282041          3061            1.0853          940000          

ENERGY_BOX_1    215412.5977     215412.5977     0.0000          0.0000          0.0000          0.0000          0.0000          0.0000          0.0000          0.0000          

STAT_BOX_1      629             

Steps/sec. : 1265.7911
MOVE_BOX_0      190557          95511           50.1220         0.3801          189735          95242           50.1974         0.8869          0               0               0.0000          284637          3109            1.0923          950000          

ENERGY_BOX_0    -671014.1119    110497.3300     0.0000          93421.9599      -3548.5344      -871384.8674    -783765.3674    19430.7996      -6871592.4366   6764542.1370    

STAT_BOX_0      223             

MOVE_BOX_1      285071          3082            1.0811          950000          

ENERGY_BOX_1    209549.1192     209549.1192     0.0000          0.0000          0.0000          0.0000          0.0000          0.0000          0.0000          0.0000          

STAT_BOX_1      627             

Steps/sec. : 1287.6944
MOVE_BOX_0      192470          96462           50.1179         0.3463          191747          96239           50.1906         0.8188          0               0               0.0000          287706          3137            1.0903          960000          

ENERGY_BOX_0    -693734.0345    108519.9665     0.0000          91171.1098      -3612.4707      -889812.6401    -799493.1572    17459.1873      -6933221.0683   6825442.3981    

STAT_BOX_0      225             

MOVE_BOX_1      288077          3112            1.0803          960000          

ENERGY_BOX_1    212980.1696     212980.1696     0.0000          0.0000          0.0000          0.0000          0.0000          0.0000          0.0000          0.0000          

STAT_BOX_1      625             

Steps/sec. : 1272.6466
MOVE_BOX_0      194508          97487           50.1198         0.3466          193783          97256           50.1881         0.7854          0               0               0.0000          290639          3158            1.0866          970000          

ENERGY_BOX_0    -710675.0312    110562.9549     0.0000          101201.2622     -3840.7431      -918598.5052    -828521.3884    20815.9669      -7148921.2793   7038028.1957    

STAT_BOX_0      232             

MOVE_BOX_1      291070          3140            1.0788          970000          

ENERGY_BOX_1    215820.3926     215820.3926     0.0000          0.0000          0.0000          0.0000          0.0000          0.0000          0.0000          0.0000          

STAT_BOX_1      618             

Steps/sec. : 1292.9687
MOVE_BOX_0      196524          98488           50.1150         0.3159          195788          98269           50.1915         0.8198          0               0               0.0000          293610          3176            1.0817          980000          

ENERGY_BOX_0    -706894.0721    111621.1331     0.0000          79810.1124      -3840.7431      -894484.5744    -806757.2405    23052.6874      -7148921.2793   7038141.2580    

STAT_BOX_0      232             

MOVE_BOX_1      294078          3158            1.0739          980000          

ENERGY_BOX_1    214186.9170     214186.9170     0.0000          0.0000          0.0000          0.0000          0.0000          0.0000          0.0000          0.0000          

STAT_BOX_1      618             

Steps/sec. : 1239.7837
MOVE_BOX_0      198439          99455           50.1187         0.3347          197818          99294           50.1946         0.8807          0               0               0.0000          296644          3195            1.0770          990000          

ENERGY_BOX_0    -725994.8718    114025.5832     0.0000          104630.7133     -3907.2483      -940743.9201    -854042.1417    25012.9207      -7210549.9110   7098835.2119    

STAT_BOX_0      234             

MOVE_BOX_1      297099          3179            1.0700          990000          

ENERGY_BOX_1    214822.4179     214822.4179     0.0000          0.0000          0.0000          0.0000          0.0000          0.0000          0.0000          0.0000          

STAT_BOX_1      616             

Steps/sec. : 1246.0323
MOVE_BOX_0      200394          100434          50.1183         0.3289          199890          100313          50.1841         0.7034          0               0               0.0000          299684          3218            1.0738          1000000         

ENERGY_BOX_0    -714823.4278    109901.9369     0.0000          107806.9706     -3612.4707      -928919.8646    -841803.0212    19942.2321      -6933221.0683   6826161.9928    

STAT_BOX_0      225             

MOVE_BOX_1      300032          3193            1.0642          1000000         

ENERGY_BOX_1    219868.5922     219868.5922     0.0000          0.0000          0.0000          0.0000          0.0000          0.0000          0.0000          0.0000          

STAT_BOX_1      625             

Simulation Time (total): 768.2521sec.
GOMC Serial Version 1.9
Completed at: Fri Dec  9 11:57:20 2016
On hostname: potoff39.eng.wayne.edu
