GOMC Serial Version 2.0
Started at: Mon Apr 24 19:17:00 2017
On hostname: potoff13.eng.wayne.edu

Total number of CPUs: 32
Total number of CPUs available: 32
Model name: Intel(R) Xeon(R) CPU E5-2640 v3 @ 2.60GHz

System name: Linux
Release: 3.10.0-327.4.5.el7.x86_64
Version: #1 SMP Mon Jan 25 13:30:47 CST 2016
Kernel Architecture: x86_64
Total Ram: 31904.2MB
Used Ram: 28270.8MB
Working in the current directory /home3/soroush/Desktop/validation/GOMC_Examples/GCMC/water/run2a_bridge

------------------------------------------------------
This code was compiled to support the grand canonical ensemble.
------------------------------------------------------

Number of threads has been set to: 4
REMINDER: CHARMM force field has been selected!
Temperature of system has been set to 700.00000 K 
Cut Off Low is set to 1.00000 A.
Ewald Summation method will be used to calculate electrostatic interactions.
Warning: Pressure calculation is turned off.
By default intra box swap frequency has been set to zero
Warning: By default, Fourier terms of ewald method will be cached!
Reading from CHARMM-Style Parameter File file: ./../../../common/Par_SPCE_Charmm.inp
Finished reading CHARMM-Style Parameter File file: ./../../../common/Par_SPCE_Charmm.inp
Reading from Box 1 PDB coordinate file file: ./STEP3_START_test_BOX_0.pdb
Finished reading Box 1 PDB coordinate file file: ./STEP3_START_test_BOX_0.pdb
Reading from Box 2 PDB coordinate file file: ./STEP3_START_test_BOX_reserv.pdb
Finished reading Box 2 PDB coordinate file file: ./STEP3_START_test_BOX_reserv.pdb
Random number seed: 800

Molecules in PSF:
Molecule Kind: SPC
Idx	name	type	charge	mass
0	H1	HT	0.4238	1.0080
1	OH2	OT	-0.8476	15.9994
2	H2	HT	0.4238	1.0080
Bonds:
[0 1] [1 2] 
Angles:
[0 1 2] 
Dihedrals:

REMINDER! 1-3 and 1-4 Interaction is OFF
Minimum coordinates in box 0: x =    0.104, y =    0.102, z =    0.104
Maximum coordinates in box 0: x =   20.000, y =   20.000, z =   20.000
Minimum coordinates in box 1: x =    0.100, y =    0.097, z =    0.100
Maximum coordinates in box 1: x =   19.999, y =   19.999, z =   20.000
Box 0, RecipVectors:    967, kmax: 8, alpha: 0.3393076

###############################################################################
########################## INITIAL SIMULATION ENERGY ##########################

ETITLE:     STEP           TOTAL        INTRA(B)       INTRA(NB)       INTER(LJ)             LRC     TOTAL_ELECT            REAL           RECIP            SELF            CORR

ENER_0:        0   11491705.4615         42.3151          0.0000   11506099.9313      -4459.8403      -9976.9445      20887.8058     126602.9541   -8612863.1176    8455395.4132

ENER_1:        0         95.1894         95.1894          0.0000          0.0000          0.0000          0.0000          0.0000          0.0000          0.0000         -0.0000

###############################################################################
############################# STARTING SIMULATION #############################

MTITLE:     STEP          DISTRY       DISACCEPT      DISACCEPT%          DISMAX          ROTATE       ROTACCEPT      ROTACCEPT%          ROTMAX       INTRASWAP       INTACCEPT      INTACCEPT%        TRANSFER      TRANACCEPT     TRANACCEPT%

ETITLE:     STEP           TOTAL        INTRA(B)       INTRA(NB)       INTER(LJ)             LRC     TOTAL_ELECT            REAL           RECIP            SELF            CORR

STITLE:     STEP        TOTALMOL

Printed combined psf to file SPCE_700_00_K_u_4200_merged.psf
MOVE_0:    10000            2001             865         43.2284          0.4520            1978            1013         51.2133          0.9510               0               0          0.0000            3015             180          5.9701

ENER_0:    10000    -444447.3947      32781.0598          0.0000      57382.1436      -2185.3218    -532425.2763    -447982.7176      27470.4952   -6029004.1824    5917091.1284

STAT_0:    10000             175

MOVE_1:    10000            3006             105          3.4930

ENER_1:    10000      46465.3190      46465.3190          0.0000          0.0000          0.0000          0.0000          0.0000          0.0000          0.0000          0.0000

STAT_1:    10000             675

Steps/sec. : 2960.0119
MOVE_0:    20000            4017            1859         46.2783          0.3811            3958            2010         50.7832          0.9567               0               0          0.0000            6073             285          4.6929

ENER_0:    20000    -508880.0779      49474.6054          0.0000      89404.1078      -2389.6895    -645369.1016    -551695.3576      25605.8845   -6304615.8021    6185336.1736

STAT_0:    20000             183

MOVE_1:    20000            5952             218          3.6626

ENER_1:    20000      69677.8665      69677.8665          0.0000          0.0000          0.0000          0.0000          0.0000          0.0000          0.0000          0.0000

STAT_1:    20000             667

Steps/sec. : 3180.0941
MOVE_0:    30000            5965            2843         47.6614          0.4014            5990            3022         50.4508          0.9118               0               0          0.0000            9057             391          4.3171

ENER_0:    30000    -530104.7175      59696.6661          0.0000      83217.3703      -2522.0575    -670496.6964    -580069.0960      31710.0908   -6476873.0645    6354735.3733

STAT_0:    30000             188

MOVE_1:    30000            8988             329          3.6604

ENER_1:    30000      93930.7740      93930.7740          0.0000          0.0000          0.0000          0.0000          0.0000          0.0000          0.0000          0.0000

STAT_1:    30000             662

Steps/sec. : 3139.3083
MOVE_0:    40000            7960            3848         48.3417          0.4126            8000            4039         50.4875          0.9991               0               0          0.0000           12025             499          4.1497

ENER_0:    40000    -512139.6800      63677.8130          0.0000      71749.0701      -2603.1910    -644963.3722    -553836.7062      31654.5823   -6580227.4219    6457446.1736

STAT_0:    40000             191

MOVE_1:    40000           12015             440          3.6621

ENER_1:    40000     116495.8019     116495.8019          0.0000          0.0000          0.0000          0.0000          0.0000          0.0000          0.0000          0.0000

STAT_1:    40000             659

Steps/sec. : 3126.1704
MOVE_0:    50000            9972            4833         48.4657          0.3227           10092            5087         50.4063          0.9870               0               0          0.0000           14961             602          4.0238

ENER_0:    50000    -544013.2032      73108.6837          0.0000      82313.0177      -2854.2978    -696580.6069    -594365.3810      27693.5492   -6890290.4941    6760381.7190

STAT_0:    50000             200

MOVE_1:    50000           14975             552          3.6861

ENER_1:    50000     134676.0560     134676.0560          0.0000          0.0000          0.0000          0.0000          0.0000          0.0000          0.0000          0.0000

STAT_1:    50000             650

Steps/sec. : 3157.2353
MOVE_0:    60000           12000            5865         48.8750          0.3567           12151            6097         50.1769          0.8186               0               0          0.0000           17952             682          3.7990

ENER_0:    60000    -588686.0665      67570.3404          0.0000      71842.4247      -2940.5690    -725158.2627    -622578.2389      29871.8422   -6993644.8515    6861192.9856

STAT_0:    60000             203

MOVE_1:    60000           17897             635          3.5481

ENER_1:    60000     149263.1278     149263.1278          0.0000          0.0000          0.0000          0.0000          0.0000          0.0000          0.0000          0.0000

STAT_1:    60000             647

Steps/sec. : 3051.8185
MOVE_0:    70000           14031            6888         49.0913          0.3611           14147            7116         50.3004          0.9527               0               0          0.0000           21037             796          3.7838

ENER_0:    70000    -552674.2386      66749.1381          0.0000      82484.8526      -2713.3669    -699194.8625    -603849.1052      33040.1220   -6718033.2318    6589647.3526

STAT_0:    70000             195

MOVE_1:    70000           20785             741          3.5651

ENER_1:    70000     172671.9083     172671.9083          0.0000          0.0000          0.0000          0.0000          0.0000          0.0000          0.0000          0.0000

STAT_1:    70000             655

Steps/sec. : 3064.6183
MOVE_0:    80000           15967            7868         49.2766          0.3967           16153            8125         50.3003          0.9633               0               0          0.0000           24068             893          3.7103

ENER_0:    80000    -565902.2367      84688.4580          0.0000      67746.9327      -2911.6692    -715425.9582    -610882.0858      28846.1429   -6959193.3991    6825803.3838

STAT_0:    80000             202

MOVE_1:    80000           23812             845          3.5486

ENER_1:    80000     181627.5420     181627.5420          0.0000          0.0000          0.0000          0.0000          0.0000          0.0000          0.0000          0.0000

STAT_1:    80000             648

Steps/sec. : 3074.2585
MOVE_0:    90000           17973            8893         49.4798          0.4621           18158            9130         50.2809          0.9494               0               0          0.0000           26986             981          3.6352

ENER_0:    90000    -597421.8737      79876.8937          0.0000      75457.9077      -2969.6114    -749787.0637    -649497.8175      35335.2127   -7028096.3040    6892471.8452

STAT_0:    90000             204

MOVE_1:    90000           26883             935          3.4780

ENER_1:    90000     186164.7435     186164.7435          0.0000          0.0000          0.0000          0.0000          0.0000          0.0000          0.0000          0.0000

STAT_1:    90000             646

Steps/sec. : 3032.7402
MOVE_0:   100000           19970            9877         49.4592          0.3806           20193           10140         50.2154          0.8770               0               0          0.0000           29965            1082          3.6109

ENER_0:   100000    -537257.8787      69685.7530          0.0000      93718.5652      -2603.1910    -698059.0060    -603429.3626      32104.6374   -6580227.4219    6453493.1411

STAT_0:   100000             191

MOVE_1:   100000           29872            1023          3.4246

ENER_1:   100000     189107.5123     189107.5123          0.0000          0.0000          0.0000          0.0000          0.0000          0.0000          0.0000          0.0000

STAT_1:   100000             659

Steps/sec. : 2939.5053
MOVE_0:   110000           21986           10889         49.5270          0.3968           22214           11155         50.2161          0.9171               0               0          0.0000           32910            1169          3.5521

ENER_0:   110000    -625224.8291      68984.2622          0.0000      95269.1789      -2969.6114    -786508.6588    -683605.1172      31666.7415   -7028096.3040    6893526.0208

STAT_0:   110000             204

MOVE_1:   110000           32890            1123          3.4144

ENER_1:   110000     189496.5824     189496.5824          0.0000          0.0000          0.0000          0.0000          0.0000          0.0000          0.0000          0.0000

STAT_1:   110000             646

Steps/sec. : 1829.1330
MOVE_0:   120000           24062           11931         49.5844          0.3982           24202           12156         50.2273          0.9642               0               0          0.0000           35891            1251          3.4856

ENER_0:   120000    -637384.3900      74348.4150          0.0000     118623.0212      -3116.9646    -827238.8616    -718189.6348      29120.9530   -7200353.5664    7062183.3865

STAT_0:   120000             209

MOVE_1:   120000           35845            1210          3.3756

ENER_1:   120000     197900.1732     197900.1732          0.0000          0.0000          0.0000          0.0000          0.0000          0.0000          0.0000          0.0000

STAT_1:   120000             641

Steps/sec. : 1821.0339
MOVE_0:   130000           25978           12879         49.5766          0.3537           26182           13146         50.2101          0.9629               0               0          0.0000           38998            1327          3.4027

ENER_0:   130000    -647036.1730      78909.8985          0.0000     106856.4629      -3057.5952    -829744.9393    -722503.2698      29564.4086   -7131450.6614    6994644.5833

STAT_0:   130000             207

MOVE_1:   130000           38842            1284          3.3057

ENER_1:   130000     194711.6602     194711.6602          0.0000          0.0000          0.0000          0.0000          0.0000          0.0000          0.0000          0.0000

STAT_1:   130000             643

Steps/sec. : 1820.9032
MOVE_0:   140000           27920           13864         49.6562          0.3658           28134           14119         50.1848          0.8804               0               0          0.0000           42029            1423          3.3858

ENER_0:   140000    -585281.0321      82686.2919          0.0000      98097.1948      -2998.7966    -763065.7222    -655403.8105      27204.2563   -7062547.7565    6927681.5884

STAT_0:   140000             205

MOVE_1:   140000           41917            1378          3.2874

ENER_1:   140000     198421.9964     198421.9964          0.0000          0.0000          0.0000          0.0000          0.0000          0.0000          0.0000          0.0000

STAT_1:   140000             645

Steps/sec. : 1788.3812
MOVE_0:   150000           29932           14863         49.6559          0.3216           30131           15124         50.1942          0.8678               0               0          0.0000           45023            1512          3.3583

ENER_0:   150000    -615325.3217      77036.7125          0.0000     114921.2494      -2940.5690    -804342.7147    -700583.4106      31880.0377   -6993644.8515    6858005.5098

STAT_0:   150000             203

MOVE_1:   150000           44914            1465          3.2618

ENER_1:   150000     198808.3142     198808.3142          0.0000          0.0000          0.0000          0.0000          0.0000          0.0000          0.0000          0.0000

STAT_1:   150000             647

Steps/sec. : 1788.4896
MOVE_0:   160000           31878           15841         49.6926          0.3300           32101           16118         50.2103          0.9143               0               0          0.0000           48096            1594          3.3142

ENER_0:   160000    -632240.4765      90071.7670          0.0000     113354.2889      -3267.8856    -832398.6468    -721551.3382      30539.1297   -7372610.8287    7231224.3904

STAT_0:   160000             214

MOVE_1:   160000           47925            1558          3.2509

ENER_1:   160000     190139.3906     190139.3906          0.0000          0.0000          0.0000          0.0000          0.0000          0.0000          0.0000          0.0000

STAT_1:   160000             636

Steps/sec. : 1798.9491
MOVE_0:   170000           33932           16873         49.7259          0.3407           34080           17104         50.1878          0.8230               0               0          0.0000           51064            1676          3.2822

ENER_0:   170000    -644224.3750      88494.1511          0.0000      89090.1371      -3360.1507    -818448.5125    -703282.8986      28925.0430   -7475965.1861    7331874.5291

STAT_0:   170000             217

MOVE_1:   170000           50924            1643          3.2264

ENER_1:   170000     204395.0894     204395.0894          0.0000          0.0000          0.0000          0.0000          0.0000          0.0000          0.0000          0.0000

STAT_1:   170000             633

Steps/sec. : 1815.5602
MOVE_0:   180000           35999           17914         49.7625          0.3472           36050           18108         50.2302          0.9177               0               0          0.0000           54010            1749          3.2383

ENER_0:   180000    -640764.0451      94050.7768          0.0000     104426.7011      -3391.1912    -835850.3318    -725014.5418      34431.6148   -7510416.6386    7365149.2338

STAT_0:   180000             218

MOVE_1:   180000           53941            1717          3.1831

ENER_1:   180000     199454.7629     199454.7629          0.0000          0.0000          0.0000          0.0000          0.0000          0.0000          0.0000          0.0000

STAT_1:   180000             632

Steps/sec. : 1796.1644
MOVE_0:   190000           38047           18956         49.8226          0.4030           38060           19112         50.2154          0.8774               0               0          0.0000           56964            1819          3.1932

ENER_0:   190000    -643338.0958      85630.1346          0.0000     106530.9037      -3207.0890    -832292.0451    -719866.0331      29387.9231   -7303707.9238    7161893.9887

STAT_0:   190000             212

MOVE_1:   190000           56929            1781          3.1285

ENER_1:   190000     198829.4539     198829.4539          0.0000          0.0000          0.0000          0.0000          0.0000          0.0000          0.0000          0.0000

STAT_1:   190000             638

Steps/sec. : 1793.7966
MOVE_0:   200000           40047           19928         49.7615          0.2986           40011           20080         50.1862          0.7908               0               0          0.0000           59962            1900          3.1687

ENER_0:   200000    -768041.2690      92104.6070          0.0000     121125.8320      -3709.4454    -977562.2626    -851003.2880      25772.1222   -7854931.1633    7702600.0666

STAT_0:   200000             228

MOVE_1:   200000           59980            1878          3.1310

ENER_1:   200000     204387.3195     204387.3195          0.0000          0.0000          0.0000          0.0000          0.0000          0.0000          0.0000          0.0000

STAT_1:   200000             622

Steps/sec. : 1779.6426
MOVE_0:   210000           42056           20929         49.7646          0.2773           42003           21079         50.1845          0.7877               0               0          0.0000           62953            1959          3.1118

ENER_0:   210000    -747978.3165      87873.7547          0.0000     148578.7412      -3709.4454    -980721.3669    -856945.9949      29402.5879   -7854931.1633    7701753.2034

STAT_0:   210000             228

MOVE_1:   210000           62988            1937          3.0752

ENER_1:   210000     193822.0333     193822.0333          0.0000          0.0000          0.0000          0.0000          0.0000          0.0000          0.0000          0.0000

STAT_1:   210000             622

Steps/sec. : 1727.3022
MOVE_0:   220000           44052           21962         49.8547          0.3697           44002           22082         50.1841          0.7747               0               0          0.0000           65947            2033          3.0828

ENER_0:   220000    -677008.0346      85699.1807          0.0000      94349.8654      -3146.8633    -853910.2173    -738140.1551      24638.3123   -7234805.0188    7094396.6443

STAT_0:   220000             210

MOVE_1:   220000           65999            1993          3.0197

ENER_1:   220000     203781.3268     203781.3268          0.0000          0.0000          0.0000          0.0000          0.0000          0.0000          0.0000          0.0000

STAT_1:   220000             640

Steps/sec. : 1777.8381
MOVE_0:   230000           46092           22983         49.8633          0.3554           46026           23097         50.1825          0.7588               0               0          0.0000           68916            2090          3.0327

ENER_0:   230000    -666053.1314      80246.3542          0.0000      77227.0640      -3207.0890    -820319.4605    -702843.1219      24932.9615   -7303707.9238    7161298.6236

STAT_0:   230000             212

MOVE_1:   230000           68966            2052          2.9754

ENER_1:   230000     206531.2706     206531.2706          0.0000          0.0000          0.0000          0.0000          0.0000          0.0000          0.0000          0.0000

STAT_1:   230000             638

Steps/sec. : 1793.6853
MOVE_0:   240000           48135           24015         49.8909          0.3959           48046           24130         50.2227          0.9523               0               0          0.0000           71900            2182          3.0348

ENER_0:   240000    -620880.7513      77913.6642          0.0000      64432.2222      -2940.5690    -760286.0687    -653465.7117      29274.6381   -6993644.8515    6857549.8564

STAT_0:   240000             203

MOVE_1:   240000           71919            2135          2.9686

ENER_1:   240000     209622.4050     209622.4050          0.0000          0.0000          0.0000          0.0000          0.0000          0.0000          0.0000          0.0000

STAT_1:   240000             647

Steps/sec. : 1829.1444
MOVE_0:   250000           50132           25014         49.8963          0.3762           50048           25135         50.2218          0.9569               0               0          0.0000           74900            2265          3.0240

ENER_0:   250000    -595651.5693      78142.3780          0.0000      77317.3293      -2911.6692    -748199.6074    -641388.4624      28076.0296   -6959193.3991    6824306.2245

STAT_0:   250000             202

MOVE_1:   250000           74920            2217          2.9592

ENER_1:   250000     217358.4112     217358.4112          0.0000          0.0000          0.0000          0.0000          0.0000          0.0000          0.0000          0.0000

STAT_1:   250000             648

Steps/sec. : 1761.4922
MOVE_0:   260000           52132           26033         49.9367          0.4287           51986           26115         50.2347          1.0403               0               0          0.0000           77965            2359          3.0257

ENER_0:   260000    -542139.3449      83186.8634          0.0000      89602.3132      -2630.5209    -712298.0006    -617361.5838      32481.0950   -6614678.8744    6487261.3626

STAT_0:   260000             192

MOVE_1:   260000           77917            2301          2.9531

ENER_1:   260000     225670.8363     225670.8363          0.0000          0.0000          0.0000          0.0000          0.0000          0.0000          0.0000          0.0000

STAT_1:   260000             658

Steps/sec. : 1584.7398
MOVE_0:   270000           54097           27011         49.9307          0.3738           54047           27131         50.1989          0.8822               0               0          0.0000           80894            2444          3.0212

ENER_0:   270000    -618751.3510      92628.7635          0.0000      91855.8536      -3146.8633    -800089.1048    -689145.1070      28774.0153   -7234805.0188    7095087.0057

STAT_0:   270000             210

MOVE_1:   270000           80962            2404          2.9693

ENER_1:   270000     221320.3688     221320.3688          0.0000          0.0000          0.0000          0.0000          0.0000          0.0000          0.0000          0.0000

STAT_1:   270000             640

Steps/sec. : 1492.5184
MOVE_0:   280000           56093           27999         49.9153          0.3327           56054           28132         50.1873          0.8179               0               0          0.0000           83904            2512          2.9939

ENER_0:   280000    -680589.7829      85950.2519          0.0000     120912.4855      -3580.4312    -883872.0892    -769939.8034      34633.2217   -7717125.3534    7568559.8460

STAT_0:   280000             224

MOVE_1:   280000           83949            2486          2.9613

ENER_1:   280000     215268.9422     215268.9422          0.0000          0.0000          0.0000          0.0000          0.0000          0.0000          0.0000          0.0000

STAT_1:   280000             626

Steps/sec. : 1784.4132
MOVE_0:   290000           58068           28995         49.9328          0.3334           58076           29158         50.2066          0.9155               0               0          0.0000           86925            2577          2.9646

ENER_0:   290000    -669687.2740      77879.9540          0.0000     107294.8530      -3360.1507    -851501.9303    -735535.3971      27125.8647   -7475965.1861    7332872.7882

STAT_0:   290000             217

MOVE_1:   290000           86931            2544          2.9265

ENER_1:   290000     223902.2182     223902.2182          0.0000          0.0000          0.0000          0.0000          0.0000          0.0000          0.0000          0.0000

STAT_1:   290000             633

Steps/sec. : 1772.6766
MOVE_0:   300000           60041           29985         49.9409          0.3388           60113           30176         50.1988          0.8850               0               0          0.0000           89901            2666          2.9655

ENER_0:   300000    -638446.4973      75825.6981          0.0000      94896.1063      -3237.4159    -805930.8858    -701698.9460      37173.8023   -7338159.3762    7196753.6341

STAT_0:   300000             213

MOVE_1:   300000           89945            2629          2.9229

ENER_1:   300000     237675.1681     237675.1681          0.0000          0.0000          0.0000          0.0000          0.0000          0.0000          0.0000          0.0000

STAT_1:   300000             637

Steps/sec. : 1790.6616
MOVE_0:   310000           62030           30984         49.9500          0.3288           62163           31196         50.1842          0.8122               0               0          0.0000           92865            2743          2.9538

ENER_0:   310000    -663306.1778      73542.3548          0.0000     104496.3024      -3237.4159    -838107.4191    -728586.9128      31595.3741   -7338159.3762    7197043.4959

STAT_0:   310000             213

MOVE_1:   310000           92942            2706          2.9115

ENER_1:   310000     240565.8273     240565.8273          0.0000          0.0000          0.0000          0.0000          0.0000          0.0000          0.0000          0.0000

STAT_1:   310000             637

Steps/sec. : 1807.6959
MOVE_0:   320000           64003           31986         49.9758          0.3807           64203           32237         50.2110          0.9768               0               0          0.0000           95888            2845          2.9670

ENER_0:   320000    -597111.2821      76660.7545          0.0000     101314.7433      -2998.7966    -772087.9833    -661920.3892      26108.2063   -7062547.7565    6926271.9561

STAT_0:   320000             205

MOVE_1:   320000           95906            2800          2.9195

ENER_1:   320000     242271.1996     242271.1996          0.0000          0.0000          0.0000          0.0000          0.0000          0.0000          0.0000          0.0000

STAT_1:   320000             645

Steps/sec. : 1804.3112
MOVE_0:   330000           66028           32996         49.9727          0.3692           66225           33244         50.1986          0.9304               0               0          0.0000           98957            2929          2.9599

ENER_0:   330000    -643917.8947      80884.5645          0.0000      81975.5100      -3116.9646    -803661.0047    -694692.4621      29536.4796   -7200353.5664    7061848.5441

STAT_0:   330000             209

MOVE_1:   330000           98790            2888          2.9234

ENER_1:   330000     249117.0388     249117.0388          0.0000          0.0000          0.0000          0.0000          0.0000          0.0000          0.0000          0.0000

STAT_1:   330000             641

Steps/sec. : 1793.4514
MOVE_0:   340000           68042           34004         49.9750          0.3629           68179           34226         50.2002          0.9172               0               0          0.0000          101937            3022          2.9646

ENER_0:   340000    -618666.4712      76641.0472          0.0000      91806.7740      -3028.1245    -784086.1679    -678315.0401      30064.8138   -7096999.2089    6961163.2673

STAT_0:   340000             206

MOVE_1:   340000          101842            2978          2.9241

ENER_1:   340000     250605.3677     250605.3677          0.0000          0.0000          0.0000          0.0000          0.0000          0.0000          0.0000          0.0000

STAT_1:   340000             644

Steps/sec. : 1791.1219
MOVE_0:   350000           70043           35006         49.9779          0.3600           70245           35260         50.1957          0.8997               0               0          0.0000          104866            3110          2.9657

ENER_0:   350000    -674089.8446      71832.8289          0.0000      87334.7290      -3176.9048    -830080.4977    -719392.8854      28766.1313   -7269256.4713    7129802.7278

STAT_0:   350000             211

MOVE_1:   350000          104846            3071          2.9291

ENER_1:   350000     240698.9886     240698.9886          0.0000          0.0000          0.0000          0.0000          0.0000          0.0000          0.0000          0.0000

STAT_1:   350000             639

Steps/sec. : 1837.4850
MOVE_0:   360000           72092           36024         49.9695          0.3348           72220           36242         50.1828          0.8427               0               0          0.0000          107853            3194          2.9614

ENER_0:   360000    -606989.0011      73539.7358          0.0000      95251.5666      -2940.5690    -772839.7346    -667107.5814      28905.4102   -6993644.8515    6859007.2882

STAT_0:   360000             203

MOVE_1:   360000          107835            3147          2.9183

ENER_1:   360000     232863.1574     232863.1574          0.0000          0.0000          0.0000          0.0000          0.0000          0.0000          0.0000          0.0000

STAT_1:   360000             647

Steps/sec. : 1790.9978
MOVE_0:   370000           74055           37038         50.0142          0.3975           74228           37248         50.1805          0.8600               0               0          0.0000          110919            3296          2.9715

ENER_0:   370000    -586239.3882      83368.8274          0.0000     108493.9377      -2998.7966    -775103.3566    -667569.4489      29057.4388   -7062547.7565    6925956.4101

STAT_0:   370000             205

MOVE_1:   370000          110798            3251          2.9342

ENER_1:   370000     235574.2651     235574.2651          0.0000          0.0000          0.0000          0.0000          0.0000          0.0000          0.0000          0.0000

STAT_1:   370000             645

Steps/sec. : 1818.4393
MOVE_0:   380000           76020           38020         50.0132          0.3788           76194           38255         50.2074          1.0887               0               0          0.0000          113961            3393          2.9773

ENER_0:   380000    -606148.4967      78157.2436          0.0000      68484.3232      -2911.6692    -749878.3943    -641812.7731      27248.5265   -6959193.3991    6823879.2514

STAT_0:   380000             202

MOVE_1:   380000          113825            3345          2.9387

ENER_1:   380000     232781.4132     232781.4132          0.0000          0.0000          0.0000          0.0000          0.0000          0.0000          0.0000          0.0000

STAT_1:   380000             648

Steps/sec. : 1783.3084
MOVE_0:   390000           77988           39001         50.0090          0.3449           78247           39269         50.1859          0.9246               0               0          0.0000          116944            3483          2.9783

ENER_0:   390000    -589797.8685      90099.6162          0.0000     101278.6289      -3207.0890    -777969.0246    -665356.4237      29021.1216   -7303707.9238    7162074.2013

STAT_0:   390000             212

MOVE_1:   390000          116821            3445          2.9490

ENER_1:   390000     222149.8314     222149.8314          0.0000          0.0000          0.0000          0.0000          0.0000          0.0000          0.0000          0.0000

STAT_1:   390000             638

Steps/sec. : 1772.8900
MOVE_0:   400000           79953           39994         50.0219          0.3724           80265           40287         50.1925          0.9791               0               0          0.0000          119986            3560          2.9670

ENER_0:   400000    -648831.9953      90934.4994          0.0000     102930.4474      -3237.4159    -839459.5262    -731433.0617      33278.7937   -7338159.3762    7196854.1180

STAT_0:   400000             213

MOVE_1:   400000          119796            3523          2.9408

ENER_1:   400000     217549.1052     217549.1052          0.0000          0.0000          0.0000          0.0000          0.0000          0.0000          0.0000          0.0000

STAT_1:   400000             637

Steps/sec. : 1680.5101
MOVE_0:   410000           81961           41001         50.0250          0.3323           82257           41296         50.2036          1.0395               0               0          0.0000          123007            3629          2.9502

ENER_0:   410000    -672491.6770      87208.0901          0.0000     124520.8671      -3360.1507    -880860.4835    -771987.5310      34789.7509   -7475965.1861    7332302.4827

STAT_0:   410000             217

MOVE_1:   410000          122775            3596          2.9289

ENER_1:   410000     215335.2646     215335.2646          0.0000          0.0000          0.0000          0.0000          0.0000          0.0000          0.0000          0.0000

STAT_1:   410000             633

Steps/sec. : 1715.1279
MOVE_0:   420000           83973           42035         50.0578          0.4069           84243           42274         50.1810          0.8769               0               0          0.0000          126060            3703          2.9375

ENER_0:   420000    -664344.2215      89468.2906          0.0000     124863.5633      -3453.7003    -875222.3750    -758604.0951      28732.3486   -7579319.5435    7433968.9150

STAT_0:   420000             220

MOVE_1:   420000          125724            3673          2.9215

ENER_1:   420000     209522.7011     209522.7011          0.0000          0.0000          0.0000          0.0000          0.0000          0.0000          0.0000          0.0000

STAT_1:   420000             630

Steps/sec. : 1728.3715
MOVE_0:   430000           86050           43073         50.0558          0.3800           86194           43249         50.1763          0.8727               0               0          0.0000          129020            3780          2.9298

ENER_0:   430000    -656991.4953      89445.9868          0.0000     114048.0537      -3391.1912    -857094.3446    -744715.4635      32008.8383   -7510416.6386    7366028.9191

STAT_0:   430000             218

MOVE_1:   430000          128736            3748          2.9114

ENER_1:   430000     206113.0114     206113.0114          0.0000          0.0000          0.0000          0.0000          0.0000          0.0000          0.0000          0.0000

STAT_1:   430000             632

Steps/sec. : 1754.5036
MOVE_0:   440000           88038           44060         50.0466          0.3316           88170           44239         50.1747          0.8343               0               0          0.0000          132056            3841          2.9086

ENER_0:   440000    -658498.1220      89720.0296          0.0000     108687.3153      -3391.1912    -853514.2757    -743505.1637      34476.1463   -7510416.6386    7365931.3803

STAT_0:   440000             218

MOVE_1:   440000          131736            3809          2.8914

ENER_1:   440000     205274.7870     205274.7870          0.0000          0.0000          0.0000          0.0000          0.0000          0.0000          0.0000          0.0000

STAT_1:   440000             632

Steps/sec. : 1775.1597
MOVE_0:   450000           89979           45041         50.0572          0.3535           90215           45268         50.1779          0.8443               0               0          0.0000          135021            3926          2.9077

ENER_0:   450000    -636946.2117      94977.4749          0.0000      90984.7799      -3207.0890    -819701.3775    -706360.9880      28038.2321   -7303707.9238    7162329.3021

STAT_0:   450000             212

MOVE_1:   450000          134785            3888          2.8846

ENER_1:   450000     198753.0115     198753.0115          0.0000          0.0000          0.0000          0.0000          0.0000          0.0000          0.0000          0.0000

STAT_1:   450000             638

Steps/sec. : 1767.3193
MOVE_0:   460000           91985           46062         50.0756          0.4151           92190           46267         50.1866          0.8930               0               0          0.0000          138062            4022          2.9132

ENER_0:   460000    -566239.5943      98728.9792          0.0000      86537.7863      -3207.0890    -748299.2707    -642116.5565      35435.1620   -7303707.9238    7162090.0475

STAT_0:   460000             212

MOVE_1:   460000          137763            3984          2.8919

ENER_1:   460000     207343.1382     207343.1382          0.0000          0.0000          0.0000          0.0000          0.0000          0.0000          0.0000          0.0000

STAT_1:   460000             638

Steps/sec. : 1780.4182
MOVE_0:   470000           94010           47059         50.0574          0.3554           94195           47278         50.1916          0.9127               0               0          0.0000          141061            4110          2.9136

ENER_0:   470000    -609290.0510      94506.8515          0.0000      80760.1306      -3176.9048    -781380.1283    -672637.3229      31116.6441   -7269256.4713    7129397.0219

STAT_0:   470000             211

MOVE_1:   470000          140734            4071          2.8927

ENER_1:   470000     207703.0632     207703.0632          0.0000          0.0000          0.0000          0.0000          0.0000          0.0000          0.0000          0.0000

STAT_1:   470000             639

Steps/sec. : 1829.3789
MOVE_0:   480000           96006           48060         50.0594          0.3472           96119           48243         50.1909          0.8762               0               0          0.0000          144120            4193          2.9094

ENER_0:   480000    -618349.9805     105847.4493          0.0000     108788.8622      -3298.4979    -829687.7942    -716341.4669      29025.0870   -7407062.2812    7264690.8669

STAT_0:   480000             215

MOVE_1:   480000          143755            4158          2.8924

ENER_1:   480000     200578.7511     200578.7511          0.0000          0.0000          0.0000          0.0000          0.0000          0.0000          0.0000          0.0000

STAT_1:   480000             635

Steps/sec. : 1790.9807
MOVE_0:   490000           98024           49083         50.0724          0.3707           98117           49225         50.1697          0.7398               0               0          0.0000          147084            4279          2.9092

ENER_0:   490000    -598252.9717     103263.7321          0.0000     109283.6354      -3207.0890    -807593.2502    -695795.3870      29285.6867   -7303707.9238    7162624.3738

STAT_0:   490000             212

MOVE_1:   490000          146775            4241          2.8895

ENER_1:   490000     205622.5704     205622.5704          0.0000          0.0000          0.0000          0.0000          0.0000          0.0000          0.0000          0.0000

STAT_1:   490000             638

Steps/sec. : 1790.6882
MOVE_0:   500000          100105           50103         50.0504          0.2937          100170           50273         50.1877          0.8854               0               0          0.0000          149980            4357          2.9051

ENER_0:   500000    -622909.2471      91171.1348          0.0000     125333.1186      -3298.4979    -836115.0025    -724226.2399      30832.8102   -7407062.2812    7264340.7084

STAT_0:   500000             215

MOVE_1:   500000          149745            4322          2.8862

ENER_1:   500000     204586.9238     204586.9238          0.0000          0.0000          0.0000          0.0000          0.0000          0.0000          0.0000          0.0000

STAT_1:   500000             635

Steps/sec. : 1790.6818
MOVE_0:   510000          102108           51123         50.0676          0.3514          102134           51264         50.1929          0.8833               0               0          0.0000          152963            4462          2.9170

ENER_0:   510000    -602174.1327      89253.7692          0.0000     102790.1814      -2940.5690    -791277.5143    -684799.1054      28207.0069   -6993644.8515    6858959.4357

STAT_0:   510000             203

MOVE_1:   510000          152795            4415          2.8895

ENER_1:   510000     210742.4140     210742.4140          0.0000          0.0000          0.0000          0.0000          0.0000          0.0000          0.0000          0.0000

STAT_1:   510000             647

Steps/sec. : 1772.6803
MOVE_0:   520000          104205           52169         50.0638          0.3386          104165           52270         50.1800          0.7696               0               0          0.0000          155934            4556          2.9217

ENER_0:   520000    -572711.4716      89728.6841          0.0000     100361.4284      -2685.6088    -760115.9753    -659886.9306      28520.4102   -6683581.7793    6554832.3244

STAT_0:   520000             194

MOVE_1:   520000          155696            4500          2.8902

ENER_1:   520000     209641.8596     209641.8596          0.0000          0.0000          0.0000          0.0000          0.0000          0.0000          0.0000          0.0000

STAT_1:   520000             656

Steps/sec. : 1809.4537
MOVE_0:   530000          106272           53204         50.0640          0.3468          106190           53292         50.1855          0.7933               0               0          0.0000          158901            4646          2.9238

ENER_0:   530000    -613303.9869      81686.9983          0.0000     131787.0309      -2998.7966    -823779.2194    -715435.7349      28268.6363   -7062547.7565    6925935.6358

STAT_0:   530000             205

MOVE_1:   530000          158637            4601          2.9003

ENER_1:   530000     205968.6866     205968.6866          0.0000          0.0000          0.0000          0.0000          0.0000          0.0000          0.0000          0.0000

STAT_1:   530000             645

Steps/sec. : 1800.7830
MOVE_0:   540000          108231           54178         50.0577          0.3032          108150           54284         50.1933          0.8358               0               0          0.0000          161924            4706          2.9063

ENER_0:   540000    -668280.1057      93302.0431          0.0000     112217.9790      -3360.1507    -870439.9770    -753499.0967      27156.1335   -7475965.1861    7331868.1723

STAT_0:   540000             217

MOVE_1:   540000          161695            4673          2.8900

ENER_1:   540000     199510.8367     199510.8367          0.0000          0.0000          0.0000          0.0000          0.0000          0.0000          0.0000          0.0000

STAT_1:   540000             633

Steps/sec. : 1785.0956
MOVE_0:   550000          110257           55221         50.0839          0.3864          110017           55229         50.2004          0.8603               0               0          0.0000          164926            4778          2.8971

ENER_0:   550000    -610447.7619      93459.5185          0.0000     106478.7428      -3028.1245    -807357.8987    -701646.7142      31942.9473   -7096999.2089    6959345.0771

STAT_0:   550000             206

MOVE_1:   550000          164800            4734          2.8726

ENER_1:   550000     202521.8752     202521.8752          0.0000          0.0000          0.0000          0.0000          0.0000          0.0000          0.0000          0.0000

STAT_1:   550000             644

Steps/sec. : 1801.9141
MOVE_0:   560000          112279           56234         50.0842          0.3823          111976           56201         50.1902          0.7832               0               0          0.0000          167939            4876          2.9034

ENER_0:   560000    -591973.5289      79871.9079          0.0000     113073.6006      -2854.2978    -782064.7395    -677553.1865      27759.9364   -6890290.4941    6758019.0046

STAT_0:   560000             200

MOVE_1:   560000          167806            4826          2.8759

ENER_1:   560000     206413.9727     206413.9727          0.0000          0.0000          0.0000          0.0000          0.0000          0.0000          0.0000          0.0000

STAT_1:   560000             650

Steps/sec. : 1941.8041
MOVE_0:   570000          114304           57260         50.0945          0.4074          113964           57205         50.1957          0.8463               0               0          0.0000          170953            4955          2.8985

ENER_0:   570000    -653749.0161      95372.5310          0.0000      89149.5742      -3329.2530    -834941.8683    -721425.3570      29821.0451   -7441513.7336    7298176.1773

STAT_0:   570000             216

MOVE_1:   570000          170779            4921          2.8815

ENER_1:   570000     208170.8344     208170.8344          0.0000          0.0000          0.0000          0.0000          0.0000          0.0000          0.0000          0.0000

STAT_1:   570000             634

Steps/sec. : 1929.1273
MOVE_0:   580000          116292           58258         50.0963          0.3710          116004           58231         50.1974          0.8696               0               0          0.0000          173938            5038          2.8964

ENER_0:   580000    -608128.2272      86718.2348          0.0000     100510.8773      -3057.5952    -792299.7441    -682933.8449      28284.0570   -7131450.6614    6993800.7052

STAT_0:   580000             207

MOVE_1:   580000          173766            4995          2.8746

ENER_1:   580000     214029.4881     214029.4881          0.0000          0.0000          0.0000          0.0000          0.0000          0.0000          0.0000          0.0000

STAT_1:   580000             643

Steps/sec. : 1843.0591
MOVE_0:   590000          118255           59231         50.0875          0.3363          118037           59246         50.1927          0.8478               0               0          0.0000          176915            5117          2.8923

ENER_0:   590000    -624757.8134      91878.4315          0.0000      79713.5983      -3146.8633    -793202.9799    -686681.1447      33808.5418   -7234805.0188    7094474.6419

STAT_0:   590000             210

MOVE_1:   590000          176793            5077          2.8717

ENER_1:   590000     209168.2792     209168.2792          0.0000          0.0000          0.0000          0.0000          0.0000          0.0000          0.0000          0.0000

STAT_1:   590000             640

Steps/sec. : 1846.5918
MOVE_0:   600000          120236           60235         50.0973          0.3643          120087           60281         50.1978          0.8522               0               0          0.0000          179924            5185          2.8818

ENER_0:   600000    -636821.5345      95070.0049          0.0000      81931.1537      -3267.8856    -810554.8076    -702716.7203      34883.3336   -7372610.8287    7229889.4078

STAT_0:   600000             214

MOVE_1:   600000          179753            5149          2.8645

ENER_1:   600000     201268.5755     201268.5755          0.0000          0.0000          0.0000          0.0000          0.0000          0.0000          0.0000          0.0000

STAT_1:   600000             636

Steps/sec. : 1763.1414
MOVE_0:   610000          122229           61242         50.1043          0.3797          121980           61236         50.2017          0.8991               0               0          0.0000          182962            5278          2.8848

ENER_0:   610000    -587179.1447      88328.7401          0.0000      95535.7281      -3028.1245    -768015.4884    -659169.5849      27425.4476   -7096999.2089    6960727.8578

STAT_0:   610000             206

MOVE_1:   610000          182829            5234          2.8628

ENER_1:   610000     204434.3541     204434.3541          0.0000          0.0000          0.0000          0.0000          0.0000          0.0000          0.0000          0.0000

STAT_1:   610000             644

Steps/sec. : 1807.8203
MOVE_0:   620000          124233           62238         50.0978          0.3452          124001           62243         50.1956          0.8409               0               0          0.0000          185938            5346          2.8752

ENER_0:   620000    -646944.1927      87798.7709          0.0000     115497.5551      -3267.8856    -846972.6332    -737621.4760      33125.6426   -7372610.8287    7230134.0289

STAT_0:   620000             214

MOVE_1:   620000          185828            5310          2.8575

ENER_1:   620000     208661.5931     208661.5931          0.0000          0.0000          0.0000          0.0000          0.0000          0.0000          0.0000          0.0000

STAT_1:   620000             636

Steps/sec. : 1682.9263
MOVE_0:   630000          126295           63273         50.0994          0.3508          125974           63229         50.1921          0.8471               0               0          0.0000          188953            5423          2.8700

ENER_0:   630000    -680825.2301      92210.1267          0.0000     107350.5721      -3485.1690    -876900.7599    -757994.0253      28923.2831   -7613770.9960    7465940.9782

STAT_0:   630000             221

MOVE_1:   630000          188778            5394          2.8573

ENER_1:   630000     215477.3602     215477.3602          0.0000          0.0000          0.0000          0.0000          0.0000          0.0000          0.0000          0.0000

STAT_1:   630000             629

Steps/sec. : 1650.6714
MOVE_0:   640000          128408           64347         50.1114          0.3779          127968           64221         50.1852          0.7809               0               0          0.0000          191896            5501          2.8667

ENER_0:   640000    -650201.4123      91916.9348          0.0000      96405.4275      -3329.2530    -835194.5217    -720949.0805      29701.8434   -7441513.7336    7297566.4491

STAT_0:   640000             216

MOVE_1:   640000          191728            5467          2.8514

ENER_1:   640000     225477.6548     225477.6548          0.0000          0.0000          0.0000          0.0000          0.0000          0.0000          0.0000          0.0000

STAT_1:   640000             634

Steps/sec. : 1623.7617
MOVE_0:   650000          130394           65338         50.1081          0.3633          129943           65218         50.1897          0.8174               0               0          0.0000          194919            5597          2.8714

ENER_0:   650000    -685289.6189      93810.8922          0.0000     112407.6251      -3329.2530    -888178.8832    -770071.3124      27301.1585   -7441513.7336    7296105.0044

STAT_0:   650000             216

MOVE_1:   650000          194744            5563          2.8566

ENER_1:   650000     225259.3707     225259.3707          0.0000          0.0000          0.0000          0.0000          0.0000          0.0000          0.0000          0.0000

STAT_1:   650000             634

Steps/sec. : 1711.9996
MOVE_0:   660000          132334           66319         50.1149          0.3882          131977           66245         50.1944          0.8816               0               0          0.0000          197934            5671          2.8651

ENER_0:   660000    -641342.1401      96762.1993          0.0000     112968.4168      -3237.4159    -847835.3403    -734711.3229      29637.9432   -7338159.3762    7195397.4157

STAT_0:   660000             213

MOVE_1:   660000          197755            5634          2.8490

ENER_1:   660000     230537.1665     230537.1665          0.0000          0.0000          0.0000          0.0000          0.0000          0.0000          0.0000          0.0000

STAT_1:   660000             637

Steps/sec. : 1692.2607
MOVE_0:   670000          134316           67305         50.1094          0.3622          133999           67249         50.1862          0.8299               0               0          0.0000          200921            5757          2.8653

ENER_0:   670000    -632644.3497      88483.9398          0.0000      80172.6280      -3116.9646    -798183.9529    -688440.9239      30365.8024   -7200353.5664    7060244.7348

STAT_0:   670000             209

MOVE_1:   670000          200764            5716          2.8471

ENER_1:   670000     231119.2049     231119.2049          0.0000          0.0000          0.0000          0.0000          0.0000          0.0000          0.0000          0.0000

STAT_1:   670000             641

Steps/sec. : 1714.5201
MOVE_0:   680000          136311           68318         50.1192          0.4047          136006           68272         50.1978          0.9450               0               0          0.0000          203917            5846          2.8669

ENER_0:   680000    -561240.3736      88511.5773          0.0000      76437.2866      -2769.3111    -723419.9263    -623111.3345      30900.4199   -6786936.1367    6655727.1249

STAT_0:   680000             197

MOVE_1:   680000          203766            5793          2.8430

ENER_1:   680000     235082.9824     235082.9824          0.0000          0.0000          0.0000          0.0000          0.0000          0.0000          0.0000          0.0000

STAT_1:   680000             653

Steps/sec. : 1726.5387
MOVE_0:   690000          138231           69275         50.1154          0.3654          138015           69279         50.1967          0.9167               0               0          0.0000          206967            5925          2.8628

ENER_0:   690000    -602958.8154      89715.0431          0.0000      85740.7905      -2940.5690    -775474.0800    -669654.0103      28748.0777   -6993644.8515    6859076.7042

STAT_0:   690000             203

MOVE_1:   690000          206787            5878          2.8425

ENER_1:   690000     240327.7587     240327.7587          0.0000          0.0000          0.0000          0.0000          0.0000          0.0000          0.0000          0.0000

STAT_1:   690000             647

Steps/sec. : 1690.1593
MOVE_0:   700000          140169           70247         50.1159          0.3659          140003           70265         50.1882          0.8162               0               0          0.0000          209993            5993          2.8539

ENER_0:   700000    -660890.4664      88814.2375          0.0000     116061.0275      -3516.7803    -862248.9511    -744403.1943      30243.0434   -7648222.4485    7500133.6482

STAT_0:   700000             222

MOVE_1:   700000          209835            5965          2.8427

ENER_1:   700000     238579.9921     238579.9921          0.0000          0.0000          0.0000          0.0000          0.0000          0.0000          0.0000          0.0000

STAT_1:   700000             628

Steps/sec. : 1694.4382
MOVE_0:   710000          142126           71227         50.1154          0.3714          141944           71244         50.1916          0.8743               0               0          0.0000          212968            6081          2.8554

ENER_0:   710000    -599436.6256      85324.4829          0.0000     107720.5218      -3116.9646    -789364.6658    -680444.0443      29638.2053   -7200353.5664    7061794.7396

STAT_0:   710000             209

MOVE_1:   710000          212962            6040          2.8362

ENER_1:   710000     237082.9698     237082.9698          0.0000          0.0000          0.0000          0.0000          0.0000          0.0000          0.0000          0.0000

STAT_1:   710000             641

Steps/sec. : 1674.1069
MOVE_0:   720000          144147           72241         50.1162          0.3743          143967           72263         50.1941          0.8790               0               0          0.0000          215932            6170          2.8574

ENER_0:   720000    -602454.8537      86779.4933          0.0000     100377.6395      -3087.2085    -786524.7780    -679389.7426      32676.9379   -7165902.1139    7026090.1406

STAT_0:   720000             208

MOVE_1:   720000          215954            6128          2.8376

ENER_1:   720000     245332.8465     245332.8465          0.0000          0.0000          0.0000          0.0000          0.0000          0.0000          0.0000          0.0000

STAT_1:   720000             642

Steps/sec. : 1734.4676
MOVE_0:   730000          146195           73269         50.1173          0.3794          145913           73229         50.1868          0.7983               0               0          0.0000          218938            6248          2.8538

ENER_0:   730000    -657932.5115      90301.3297          0.0000     120245.3531      -3329.2530    -865149.9413    -751360.8203      31988.2173   -7441513.7336    7295736.3954

STAT_0:   730000             216

MOVE_1:   730000          218954            6214          2.8380

ENER_1:   730000     249126.5070     249126.5070          0.0000          0.0000          0.0000          0.0000          0.0000          0.0000          0.0000          0.0000

STAT_1:   730000             634

Steps/sec. : 1714.0410
MOVE_0:   740000          148193           74242         50.0982          0.2748          147974           74261         50.1852          0.7959               0               0          0.0000          221884            6347          2.8605

ENER_0:   740000    -624968.3369      90871.0676          0.0000      87300.4338      -2911.6692    -800228.1691    -691615.6051      27590.4560   -6959193.3991    6822990.3790

STAT_0:   740000             202

MOVE_1:   740000          221949            6299          2.8380

ENER_1:   740000     254695.1950     254695.1950          0.0000          0.0000          0.0000          0.0000          0.0000          0.0000          0.0000          0.0000

STAT_1:   740000             648

Steps/sec. : 1689.8608
MOVE_0:   750000          150179           75267         50.1182          0.3746          149944           75255         50.1887          0.8542               0               0          0.0000          224882            6424          2.8566

ENER_0:   750000    -661617.8741     101926.3386          0.0000     101693.0466      -3360.1507    -861877.1084    -747437.4612      31299.0773   -7475965.1861    7330226.4616

STAT_0:   750000             217

MOVE_1:   750000          224995            6391          2.8405

ENER_1:   750000     253331.3022     253331.3022          0.0000          0.0000          0.0000          0.0000          0.0000          0.0000          0.0000          0.0000

STAT_1:   750000             633

Steps/sec. : 1739.2324
MOVE_0:   760000          152172           76270         50.1209          0.3931          151957           76270         50.1918          0.8993               0               0          0.0000          227879            6492          2.8489

ENER_0:   760000    -651711.0826     104536.9417          0.0000      85717.1216      -3485.1690    -838479.9769    -721151.5826      30560.3699   -7613770.9960    7465882.2317

STAT_0:   760000             221

MOVE_1:   760000          227992            6463          2.8347

ENER_1:   760000     249812.5119     249812.5119          0.0000          0.0000          0.0000          0.0000          0.0000          0.0000          0.0000          0.0000

STAT_1:   760000             629

Steps/sec. : 1630.4692
MOVE_0:   770000          154108           77231         50.1149          0.3541          154005           77304         50.1958          0.9604               0               0          0.0000          230839            6571          2.8466

ENER_0:   770000    -616679.5581     100378.5657          0.0000      88197.2538      -3176.9048    -802078.4727    -687193.1384      27797.2270   -7269256.4713    7126573.9099

STAT_0:   770000             211

MOVE_1:   770000          231048            6532          2.8271

ENER_1:   770000     241166.5674     241166.5674          0.0000          0.0000          0.0000          0.0000          0.0000          0.0000          0.0000          0.0000

STAT_1:   770000             639

Steps/sec. : 1681.5750
MOVE_0:   780000          156066           78218         50.1185          0.3566          156002           78297         50.1897          0.8716               0               0          0.0000          233835            6635          2.8375

ENER_0:   780000    -650269.0350      96841.2088          0.0000     106692.6750      -3116.9646    -850685.9542    -735907.6634      25285.2817   -7200353.5664    7060289.9938

STAT_0:   780000             209

MOVE_1:   780000          234097            6594          2.8168

ENER_1:   780000     243829.6614     243829.6614          0.0000          0.0000          0.0000          0.0000          0.0000          0.0000          0.0000          0.0000

STAT_1:   780000             641

Steps/sec. : 1628.7109
MOVE_0:   790000          158023           79189         50.1123          0.3126          158100           79343         50.1853          0.8108               0               0          0.0000          236760            6699          2.8294

ENER_0:   790000    -694084.4811     100246.4701          0.0000     116857.0766      -3516.7803    -907671.2474    -790018.1175      30607.1373   -7648222.4485    7499962.1813

STAT_0:   790000             222

MOVE_1:   790000          237117            6671          2.8134

ENER_1:   790000     224547.7713     224547.7713          0.0000          0.0000          0.0000          0.0000          0.0000          0.0000          0.0000          0.0000

STAT_1:   790000             628

Steps/sec. : 1709.4961
MOVE_0:   800000          160084           80233         50.1193          0.3274          160158           80375         50.1848          0.8074               0               0          0.0000          239675            6770          2.8247

ENER_0:   800000    -685026.6010      97433.9074          0.0000     116591.4138      -3298.4979    -895753.4243    -777992.1670      26482.7735   -7407062.2812    7262818.2503

STAT_0:   800000             215

MOVE_1:   800000          240083            6735          2.8053

ENER_1:   800000     220281.8813     220281.8813          0.0000          0.0000          0.0000          0.0000          0.0000          0.0000          0.0000          0.0000

STAT_1:   800000             635

Steps/sec. : 1689.5993
MOVE_0:   810000          162093           81245         50.1225          0.3196          162158           81387         50.1899          0.9006               0               0          0.0000          242741            6844          2.8195

ENER_0:   810000    -654856.1079      98157.3467          0.0000     117987.3154      -3298.4979    -867702.2720    -749312.8817      26880.3638   -7407062.2812    7261792.5270

STAT_0:   810000             215

MOVE_1:   810000          243008            6809          2.8020

ENER_1:   810000     213008.5109     213008.5109          0.0000          0.0000          0.0000          0.0000          0.0000          0.0000          0.0000          0.0000

STAT_1:   810000             635

Steps/sec. : 1690.6208
MOVE_0:   820000          164049           82248         50.1362          0.3867          164179           82392         50.1843          0.8238               0               0          0.0000          245773            6933          2.8209

ENER_0:   820000    -599276.1008      93153.5259          0.0000      81202.5219      -2911.6692    -770720.4793    -663740.6363      30379.0168   -6959193.3991    6821834.5393

STAT_0:   820000             202

MOVE_1:   820000          245999            6885          2.7988

ENER_1:   820000     220869.3331     220869.3331          0.0000          0.0000          0.0000          0.0000          0.0000          0.0000          0.0000          0.0000

STAT_1:   820000             648

Steps/sec. : 1736.6297
MOVE_0:   830000          166054           83257         50.1385          0.4045          166218           83424         50.1895          0.9080               0               0          0.0000          248733            7017          2.8211

ENER_0:   830000    -592278.6715      92915.2224          0.0000     109815.3761      -2940.5690    -792068.7011    -685315.1851      29622.3013   -6993644.8515    6857269.0343

STAT_0:   830000             203

MOVE_1:   830000          248995            6970          2.7993

ENER_1:   830000     219587.4433     219587.4433          0.0000          0.0000          0.0000          0.0000          0.0000          0.0000          0.0000          0.0000

STAT_1:   830000             647

Steps/sec. : 1721.6790
MOVE_0:   840000          168003           84240         50.1420          0.3810          168273           84471         50.1988          0.9933               0               0          0.0000          251702            7123          2.8299

ENER_0:   840000    -539517.5382      84493.3104          0.0000     101298.1477      -2769.3111    -722539.6852    -619738.2990      29328.4350   -6786936.1367    6654806.3155

STAT_0:   840000             197

MOVE_1:   840000          252022            7070          2.8053

ENER_1:   840000     226641.0595     226641.0595          0.0000          0.0000          0.0000          0.0000          0.0000          0.0000          0.0000          0.0000

STAT_1:   840000             653

Steps/sec. : 1874.9684
MOVE_0:   850000          170029           85266         50.1479          0.4159          170285           85476         50.1958          0.9590               0               0          0.0000          254712            7218          2.8338

ENER_0:   850000    -577544.4151      89546.5250          0.0000      70292.1958      -2825.8262    -734557.3098    -625847.4581      26466.3296   -6855839.0416    6720662.8604

STAT_0:   850000             199

MOVE_1:   850000          254974            7167          2.8109

ENER_1:   850000     246709.0163     246709.0163          0.0000          0.0000          0.0000          0.0000          0.0000          0.0000          0.0000          0.0000

STAT_1:   850000             651

Steps/sec. : 1889.7023
MOVE_0:   860000          172028           86266         50.1465          0.3900          172281           86468         50.1901          0.8800               0               0          0.0000          257655            7310          2.8371

ENER_0:   860000    -583956.0705      87135.6679          0.0000      82139.1689      -2825.8262    -750405.0811    -645994.1994      29237.5055   -6855839.0416    6722190.6544

STAT_0:   860000             199

MOVE_1:   860000          258036            7259          2.8132

ENER_1:   860000     236697.1184     236697.1184          0.0000          0.0000          0.0000          0.0000          0.0000          0.0000          0.0000          0.0000

STAT_1:   860000             651

Steps/sec. : 1804.7020
MOVE_0:   870000          173994           87250         50.1454          0.3728          174273           87475         50.1942          0.9330               0               0          0.0000          260773            7404          2.8393

ENER_0:   870000    -603882.5482      84216.2299          0.0000      80187.8541      -2854.2978    -765432.3344    -661795.9639      30238.5685   -6890290.4941    6756415.5551

STAT_0:   870000             200

MOVE_1:   870000          260960            7354          2.8181

ENER_1:   870000     238072.7760     238072.7760          0.0000          0.0000          0.0000          0.0000          0.0000          0.0000          0.0000          0.0000

STAT_1:   870000             650

Steps/sec. : 1697.3493
MOVE_0:   880000          176004           88263         50.1483          0.3881          176249           88468         50.1949          0.9506               0               0          0.0000          263802            7499          2.8427

ENER_0:   880000    -595453.1722      80603.2920          0.0000     105245.2840      -2969.6114    -778332.1368    -675459.9674      33104.6118   -7028096.3040    6892119.5228

STAT_0:   880000             204

MOVE_1:   880000          263945            7453          2.8237

ENER_1:   880000     226637.9147     226637.9147          0.0000          0.0000          0.0000          0.0000          0.0000          0.0000          0.0000          0.0000

STAT_1:   880000             646

Steps/sec. : 1679.4995
MOVE_0:   890000          178018           89263         50.1427          0.3379          178244           89459         50.1891          0.8473               0               0          0.0000          266782            7594          2.8465

ENER_0:   890000    -653292.7827      76547.0496          0.0000     108797.0271      -3207.0890    -835429.7705    -724932.6388      30491.5740   -7303707.9238    7162719.2180

STAT_0:   890000             212

MOVE_1:   890000          266956            7556          2.8304

ENER_1:   890000     219971.4413     219971.4413          0.0000          0.0000          0.0000          0.0000          0.0000          0.0000          0.0000          0.0000

STAT_1:   890000             638

Steps/sec. : 1714.4283
MOVE_0:   900000          180039           90269         50.1386          0.3176          180222           90454         50.1903          0.8581               0               0          0.0000          269750            7668          2.8426

ENER_0:   900000    -675330.2128      76622.3633          0.0000     118487.5437      -3453.7003    -866986.4195    -751356.7810      30510.4191   -7579319.5435    7433179.4859

STAT_0:   900000             220

MOVE_1:   900000          269989            7638          2.8290

ENER_1:   900000     219264.5669     219264.5669          0.0000          0.0000          0.0000          0.0000          0.0000          0.0000          0.0000          0.0000

STAT_1:   900000             630

Steps/sec. : 1673.0522
MOVE_0:   910000          182044           91298         50.1516          0.3910          182305           91497         50.1890          0.8580               0               0          0.0000          272673            7741          2.8389

ENER_0:   910000    -675444.1132      78495.9755          0.0000      87849.9810      -3298.4979    -838491.5718    -724599.4491      28265.7507   -7407062.2812    7264904.4078

STAT_0:   910000             215

MOVE_1:   910000          272978            7706          2.8229

ENER_1:   910000     225685.0422     225685.0422          0.0000          0.0000          0.0000          0.0000          0.0000          0.0000          0.0000          0.0000

STAT_1:   910000             635

Steps/sec. : 1678.6173
MOVE_0:   920000          183998           92278         50.1516          0.3898          184287           92493         50.1896          0.8686               0               0          0.0000          275673            7813          2.8342

ENER_0:   920000    -651454.4549      93799.2507          0.0000      94428.8223      -3360.1507    -836322.3771    -720332.9508      27771.5763   -7475965.1861    7332204.1836

STAT_0:   920000             217

MOVE_1:   920000          276042            7780          2.8184

ENER_1:   920000     223019.0424     223019.0424          0.0000          0.0000          0.0000          0.0000          0.0000          0.0000          0.0000          0.0000

STAT_1:   920000             633

Steps/sec. : 1599.8280
MOVE_0:   930000          186035           93298         50.1508          0.3817          186280           93493         50.1895          0.8600               0               0          0.0000          278670            7904          2.8363

ENER_0:   930000    -641551.8944      87094.2176          0.0000     106743.5315      -2969.6114    -832420.0320    -717673.9203      22271.9389   -7028096.3040    6891078.2534

STAT_0:   930000             204

MOVE_1:   930000          279015            7858          2.8163

ENER_1:   930000     234324.3518     234324.3518          0.0000          0.0000          0.0000          0.0000          0.0000          0.0000          0.0000          0.0000

STAT_1:   930000             646

Steps/sec. : 1606.3457
MOVE_0:   940000          188105           94331         50.1481          0.3595          188264           94500         50.1955          0.9121               0               0          0.0000          281715            7982          2.8334

ENER_0:   940000    -695837.3189      85233.4909          0.0000     100301.3052      -3453.7003    -877918.4147    -755675.7393      25636.9825   -7579319.5435    7431439.8857

STAT_0:   940000             220

MOVE_1:   940000          281916            7952          2.8207

ENER_1:   940000     224419.6568     224419.6568          0.0000          0.0000          0.0000          0.0000          0.0000          0.0000          0.0000          0.0000

STAT_1:   940000             630

Steps/sec. : 1707.1407
MOVE_0:   950000          190073           95319         50.1486          0.3605          190283           95500         50.1884          0.7983               0               0          0.0000          284712            8053          2.8285

ENER_0:   950000    -683549.5460      84349.8710          0.0000     103347.4571      -3360.1507    -867886.7233    -757049.3110      35334.3953   -7475965.1861    7329793.3785

STAT_0:   950000             217

MOVE_1:   950000          284932            8020          2.8147

ENER_1:   950000     223102.7867     223102.7867          0.0000          0.0000          0.0000          0.0000          0.0000          0.0000          0.0000          0.0000

STAT_1:   950000             633

Steps/sec. : 1617.3596
MOVE_0:   960000          192072           96321         50.1484          0.3683          192271           96518         50.1989          0.9547               0               0          0.0000          287709            8143          2.8303

ENER_0:   960000    -612086.0334      75970.1405          0.0000      79614.9448      -2969.6114    -764701.5072    -657128.2547      29220.4281   -7028096.3040    6891302.6234

STAT_0:   960000             204

MOVE_1:   960000          287948            8097          2.8120

ENER_1:   960000     229986.9206     229986.9206          0.0000          0.0000          0.0000          0.0000          0.0000          0.0000          0.0000          0.0000

STAT_1:   960000             646

Steps/sec. : 1782.4651
MOVE_0:   970000          194009           97292         50.1482          0.3705          194294           97528         50.1961          0.8875               0               0          0.0000          290630            8220          2.8283

ENER_0:   970000    -662907.1565      79738.3695          0.0000      95887.8588      -3237.4159    -835295.9689    -724412.7559      30698.9676   -7338159.3762    7196577.1957

STAT_0:   970000             213

MOVE_1:   970000          291067            8183          2.8114

ENER_1:   970000     236736.0827     236736.0827          0.0000          0.0000          0.0000          0.0000          0.0000          0.0000          0.0000          0.0000

STAT_1:   970000             637

Steps/sec. : 1749.9252
MOVE_0:   980000          196013           98287         50.1431          0.3162          196273           98536         50.2035          0.9883               0               0          0.0000          293638            8297          2.8256

ENER_0:   980000    -682929.2714      90304.9404          0.0000     125547.2649      -3742.0558    -895039.4210    -776717.8185      32329.6272   -7889382.6158    7738731.3861

STAT_0:   980000             229

MOVE_1:   980000          294076            8276          2.8142

ENER_1:   980000     232494.2759     232494.2759          0.0000          0.0000          0.0000          0.0000          0.0000          0.0000          0.0000          0.0000

STAT_1:   980000             621

Steps/sec. : 1570.6759
MOVE_0:   990000          197949           99262         50.1452          0.3322          198258           99518         50.1962          0.8573               0               0          0.0000          296697            8379          2.8241

ENER_0:   990000    -663599.7763      76872.6527          0.0000      97590.0706      -3329.2530    -834733.2466    -727591.7414      35191.8110   -7441513.7336    7299180.4175

STAT_0:   990000             216

MOVE_1:   990000          297096            8345          2.8089

ENER_1:   990000     246488.5845     246488.5845          0.0000          0.0000          0.0000          0.0000          0.0000          0.0000          0.0000          0.0000

STAT_1:   990000             634

Steps/sec. : 1628.2086
MOVE_0:  1000000          199899          100250         50.1503          0.3754          200253          100505         50.1890          0.7481               0               0          0.0000          299657            8465          2.8249

ENER_0:  1000000    -694769.2162      69745.3903          0.0000     107130.1071      -3422.3744    -868222.3392    -758341.3229      33815.6750   -7544868.0911    7401171.3997

STAT_0:  1000000             219

MOVE_1:  1000000          300191            8434          2.8095

ENER_1:  1000000     246765.6914     246765.6914          0.0000          0.0000          0.0000          0.0000          0.0000          0.0000          0.0000          0.0000

STAT_1:  1000000             631

Simulation Time (total): 549.0219sec.
GOMC Serial Version 2.0
Completed at: Mon Apr 24 19:26:09 2017
On hostname: potoff13.eng.wayne.edu
