GOMC Serial Version 1.9
Started at: Sat Apr 22 21:46:38 2017
On hostname: potoff14.eng.wayne.edu

Total number of CPUs: 32
Total number of CPUs available: 32
Model name: Intel(R) Xeon(R) CPU E5-2640 v3 @ 2.60GHz

System name: Linux
Release: 3.10.0-327.4.5.el7.x86_64
Version: #1 SMP Mon Jan 25 13:30:47 CST 2016
Kernel Architecture: x86_64
Total Ram: 31904.2MB
Used Ram: 28322.6MB
Working in the current directory /home3/soroush/Desktop/validation/GOMC_Examples/GCMC/water/run2a_bridge

------------------------------------------------------
This code was compiled to support the grand canonical ensemble.
------------------------------------------------------

Number of threads has been set to: 4
REMINDER: CHARMM force field has been selected!
Temperature of system has been set to 700.00000 K 
Ewald Summation method will be used to calculate electrostatic interactions.
Warning: Pressure calculation is turned off.
By default intra box swap frequency has been set to zero
Warning: 1-4 electro static scaling has been set to zero!
Warning: By default, Fourier terms of ewald method will be cached!
Reading from CHARMM-Style Parameter File file: ./../../../common/Par_SPCE_Charmm.inp
Finished reading CHARMM-Style Parameter File file: ./../../../common/Par_SPCE_Charmm.inp
Reading from Box 1 PDB coordinate file file: ./STEP3_START_test_BOX_0.pdb
Finished reading Box 1 PDB coordinate file file: ./STEP3_START_test_BOX_0.pdb
Reading from Box 2 PDB coordinate file file: ./STEP3_START_test_BOX_reserv.pdb
Finished reading Box 2 PDB coordinate file file: ./STEP3_START_test_BOX_reserv.pdb
Random number seed: 800

Molecules in PSF:
Molecule Kind: SPC
Idx	name	type	charge	mass
0	H1	HT	0.4238	1.0080
1	OH2	OT	-0.8476	15.9994
2	H2	HT	0.4238	1.0080
Bonds:
[0 1] [1 2] 
Angles:
[0 1 2] 
Dihedrals:

REMINDER! 1-3 and 1-4 Interaction is OFF
Minimum coordinates in box 0: x =    0.104, y =    0.102, z =    0.104
Maximum coordinates in box 0: x =   20.000, y =   20.000, z =   20.000
Minimum coordinates in box 1: x =    0.100, y =    0.097, z =    0.100
Maximum coordinates in box 1: x =   19.999, y =   19.999, z =   20.000
Box 0, RecipVectors:    967, kmax: 8, alpha: 0.3393076

###############################################################################
########################## INITIAL SIMULATION ENERGY ##########################

ETITLE:     STEP           TOTAL        INTRA(B)       INTRA(NB)       INTER(LJ)             LRC     TOTAL_ELECT            REAL           RECIP            SELF            CORR

ENER_0:        0   11491705.4615         42.3151          0.0000   11506099.9313      -4459.8403      -9976.9445      20887.8058     126602.9541   -8612863.1176    8455395.4132

ENER_1:        0         95.1894         95.1894          0.0000          0.0000          0.0000          0.0000          0.0000          0.0000          0.0000         -0.0000

###############################################################################
############################# STARTING SIMULATION #############################

MTITLE:     STEP          DISTRY       DISACCEPT      DISACCEPT%          DISMAX          ROTATE       ROTACCEPT      ROTACCEPT%          ROTMAX       INTRASWAP       INTACCEPT      INTACCEPT%        TRANSFER      TRANACCEPT     TRANACCEPT%

ETITLE:     STEP           TOTAL        INTRA(B)       INTRA(NB)       INTER(LJ)             LRC     TOTAL_ELECT            REAL           RECIP            SELF            CORR

STITLE:     STEP        TOTALMOL

Printed combined psf to file SPCE_700_00_K_u_4200_merged.psf
MOVE_0:    10000            2011             853         42.4167          0.4138            2003            1021         50.9735          0.8794               0               0          0.0000            3076             116          3.7711

ENER_0:    10000    -448821.5762      25721.3589          0.0000      69676.1766      -2389.6895    -541829.4221    -460125.8400      34693.1953   -6304615.8021    6188219.0246

STAT_0:    10000             183

MOVE_1:    10000            2910              49          1.6838

ENER_1:    10000      33062.7081      33062.7081          0.0000          0.0000          0.0000          0.0000          0.0000          0.0000          0.0000          0.0000

STAT_1:    10000             667

Steps/sec. : 3005.0199
MOVE_0:    20000            4012            1873         46.6849          0.4946            3999            2035         50.8877          0.9985               0               0          0.0000            6085             186          3.0567

ENER_0:    20000    -445463.7128      39479.8424          0.0000      59214.3603      -2160.4180    -541997.4974    -466314.5454      36340.0269   -5994552.7299    5882529.7509

STAT_0:    20000             174

MOVE_1:    20000            5904             110          1.8631

ENER_1:    20000      49030.3567      49030.3567          0.0000          0.0000          0.0000          0.0000          0.0000          0.0000          0.0000          0.0000

STAT_1:    20000             676

Steps/sec. : 4636.2237
MOVE_0:    30000            6001            2841         47.3421          0.3690            6016            3037         50.4820          0.9230               0               0          0.0000            9101             250          2.7470

ENER_0:    30000    -507880.0004      54815.5834          0.0000      75000.8530      -2468.6822    -635227.7546    -542061.2324      26776.9948   -6407970.1595    6288026.6427

STAT_0:    30000             186

MOVE_1:    30000            8882             186          2.0941

ENER_1:    30000      63013.3864      63013.3864          0.0000          0.0000          0.0000          0.0000          0.0000          0.0000          0.0000          0.0000

STAT_1:    30000             664

Steps/sec. : 4577.8405
MOVE_0:    40000            8015            3860         48.1597          0.3999            8019            4050         50.5051          1.0049               0               0          0.0000           12146             314          2.5852

ENER_0:    40000    -467001.8023      57384.9969          0.0000      57643.5405      -2337.7413    -579692.5984    -493728.4566      30758.9965   -6235712.8972    6118989.7588

STAT_0:    40000             181

MOVE_1:    40000           11820             245          2.0728

ENER_1:    40000      76809.0827      76809.0827          0.0000          0.0000          0.0000          0.0000          0.0000          0.0000          0.0000          0.0000

STAT_1:    40000             669

Steps/sec. : 4465.9465
MOVE_0:    50000            9973            4828         48.4107          0.3516           10014            5055         50.4793          1.0605               0               0          0.0000           15162             381          2.5129

ENER_0:    50000    -495376.0695      75109.6744          0.0000      64202.2768      -2603.1910    -632084.8298    -535936.9036      27524.5996   -6580227.4219    6456554.8960

STAT_0:    50000             191

MOVE_1:    50000           14851             322          2.1682

ENER_1:    50000      97312.1935      97312.1935          0.0000          0.0000          0.0000          0.0000          0.0000          0.0000          0.0000          0.0000

STAT_1:    50000             659

Steps/sec. : 4598.7432
MOVE_0:    60000           11982            5857         48.8817          0.4469           12009            6060         50.4622          1.0715               0               0          0.0000           18091             448          2.4764

ENER_0:    60000    -429625.1109      83002.1461          0.0000      62562.2445      -2311.9812    -572877.5202    -486660.2711      31323.7673   -6201261.4447    6083720.4284

STAT_0:    60000             180

MOVE_1:    60000           17918             378          2.1096

ENER_1:    60000     112695.5337     112695.5337          0.0000          0.0000          0.0000          0.0000          0.0000          0.0000          0.0000          0.0000

STAT_1:    60000             670

Steps/sec. : 4480.2066
MOVE_0:    70000           13965            6838         48.9653          0.3674           14053            7072         50.3238          0.9543               0               0          0.0000           21078             500          2.3721

ENER_0:    70000    -537107.2058      88951.4115          0.0000      70992.2143      -2685.6088    -694365.2228    -599276.9134      31664.9394   -6683581.7793    6556828.5306

STAT_0:    70000             194

MOVE_1:    70000           20904             444          2.1240

ENER_1:    70000     114697.8403     114697.8403          0.0000          0.0000          0.0000          0.0000          0.0000          0.0000          0.0000          0.0000

STAT_1:    70000             656

Steps/sec. : 4495.3683
MOVE_0:    80000           15963            7848         49.1637          0.3881           16128            8104         50.2480          0.8648               0               0          0.0000           24056             546          2.2697

ENER_0:    80000    -556776.9194      87880.3863          0.0000      59365.1584      -2713.3669    -701309.0972    -604606.9125      30914.8466   -6718033.2318    6590416.2005

STAT_0:    80000             195

MOVE_1:    80000           23853             491          2.0584

ENER_1:    80000     123286.0704     123286.0704          0.0000          0.0000          0.0000          0.0000          0.0000          0.0000          0.0000          0.0000

STAT_1:    80000             655

Steps/sec. : 4381.9633
MOVE_0:    90000           18004            8868         49.2557          0.3820           18123            9104         50.2345          0.8704               0               0          0.0000           27000             587          2.1741

ENER_0:    90000    -548883.6994      90814.5632          0.0000      86406.2020      -2769.3111    -723335.1535    -622128.9721      27861.3369   -6786936.1367    6657868.6184

STAT_0:    90000             197

MOVE_1:    90000           26873             534          1.9871

ENER_1:    90000     139454.6554     139454.6554          0.0000          0.0000          0.0000          0.0000          0.0000          0.0000          0.0000          0.0000

STAT_1:    90000             653

Steps/sec. : 4349.6491
MOVE_0:   100000           19940            9844         49.3681          0.3993           20137           10104         50.1763          0.7705               0               0          0.0000           30010             616          2.0526

ENER_0:   100000    -650564.1478      96544.4436          0.0000      97269.7240      -3329.2530    -841049.0625    -728321.8773      29068.7418   -7441513.7336    7299717.8066

STAT_0:   100000             216

MOVE_1:   100000           29913             582          1.9456

ENER_1:   100000     134258.4473     134258.4473          0.0000          0.0000          0.0000          0.0000          0.0000          0.0000          0.0000          0.0000

STAT_1:   100000             634

Steps/sec. : 4073.3381
MOVE_0:   110000           21869           10800         49.3850          0.3550           22182           11127         50.1623          0.7496               0               0          0.0000           32953             634          1.9240

ENER_0:   110000    -657312.1957      94371.3931          0.0000     101336.1908      -3516.7803    -849502.9993    -737332.1582      34268.7146   -7648222.4485    7501782.8928

STAT_0:   110000             222

MOVE_1:   110000           32996             606          1.8366

ENER_1:   110000     134786.7911     134786.7911          0.0000          0.0000          0.0000          0.0000          0.0000          0.0000          0.0000          0.0000

STAT_1:   110000             628

Steps/sec. : 1396.0727
MOVE_0:   120000           23849           11799         49.4738          0.3673           24250           12182         50.2351          0.8852               0               0          0.0000           36014             672          1.8659

ENER_0:   120000    -648493.0770      89453.3320          0.0000      97143.0456      -3176.9048    -831912.5498    -717329.7943      25129.2504   -7269256.4713    7129544.4654

STAT_0:   120000             211

MOVE_1:   120000           35887             633          1.7639

ENER_1:   120000     141584.2642     141584.2642          0.0000          0.0000          0.0000          0.0000          0.0000          0.0000          0.0000          0.0000

STAT_1:   120000             639

Steps/sec. : 1335.4981
MOVE_0:   130000           25836           12798         49.5355          0.3736           26289           13209         50.2453          0.9370               0               0          0.0000           39019             706          1.8094

ENER_0:   130000    -619766.9690      84458.5093          0.0000     109865.0894      -3146.8633    -810943.7043    -697993.6884      25694.2688   -7234805.0188    7096160.7341

STAT_0:   130000             210

MOVE_1:   130000           38856             666          1.7140

ENER_1:   130000     145342.6869     145342.6869          0.0000          0.0000          0.0000          0.0000          0.0000          0.0000          0.0000          0.0000

STAT_1:   130000             640

Steps/sec. : 1331.3714
MOVE_0:   140000           27777           13764         49.5518          0.3541           28339           14216         50.1641          0.7727               0               0          0.0000           42026             734          1.7465

ENER_0:   140000    -658525.9831      90195.7832          0.0000     109576.4342      -3548.5344    -854749.6661    -740381.8167      32728.3483   -7682673.9009    7535577.7032

STAT_0:   140000             223

MOVE_1:   140000           41858             707          1.6890

ENER_1:   140000     144684.1751     144684.1751          0.0000          0.0000          0.0000          0.0000          0.0000          0.0000          0.0000          0.0000

STAT_1:   140000             627

Steps/sec. : 1316.4249
MOVE_0:   150000           29722           14735         49.5761          0.3297           30329           15230         50.2160          0.9236               0               0          0.0000           45123             762          1.6887

ENER_0:   150000    -636552.5126      85654.8044          0.0000      91254.4025      -3237.4159    -810224.3036    -699445.1839      30049.3990   -7338159.3762    7197330.8576

STAT_0:   150000             213

MOVE_1:   150000           44826             725          1.6174

ENER_1:   150000     149865.8580     149865.8580          0.0000          0.0000          0.0000          0.0000          0.0000          0.0000          0.0000          0.0000

STAT_1:   150000             637

Steps/sec. : 1361.6930
MOVE_0:   160000           31708           15749         49.6689          0.3805           32310           16217         50.1919          0.8752               0               0          0.0000           48143             808          1.6783

ENER_0:   160000    -548023.5277      81590.0122          0.0000      84139.7968      -2797.4973    -710955.8394    -608095.3365      28015.5581   -6821387.5892    6690511.5282

STAT_0:   160000             198

MOVE_1:   160000           47839             756          1.5803

ENER_1:   160000     158522.5723     158522.5723          0.0000          0.0000          0.0000          0.0000          0.0000          0.0000          0.0000          0.0000

STAT_1:   160000             652

Steps/sec. : 1339.5909
MOVE_0:   170000           33713           16775         49.7583          0.4748           34267           17201         50.1970          0.8408               0               0          0.0000           51158             867          1.6947

ENER_0:   170000    -539559.7167      81373.9903          0.0000      68388.0982      -2769.3111    -686552.4941    -586603.0919      31075.0416   -6786936.1367    6655911.6929

STAT_0:   170000             197

MOVE_1:   170000           50862             814          1.6004

ENER_1:   170000     164851.2651     164851.2651          0.0000          0.0000          0.0000          0.0000          0.0000          0.0000          0.0000          0.0000

STAT_1:   170000             653

Steps/sec. : 1440.2537
MOVE_0:   180000           35649           17727         49.7265          0.3779           36247           18207         50.2304          0.9375               0               0          0.0000           54233             907          1.6724

ENER_0:   180000    -601315.6450      84455.7686          0.0000      99121.4418      -2940.5690    -781952.2865    -679135.3193      32312.3298   -6993644.8515    6858515.5545

STAT_0:   180000             203

MOVE_1:   180000           53871             860          1.5964

ENER_1:   180000     168437.0876     168437.0876          0.0000          0.0000          0.0000          0.0000          0.0000          0.0000          0.0000          0.0000

STAT_1:   180000             647

Steps/sec. : 1373.6390
MOVE_0:   190000           37763           18785         49.7445          0.3744           38280           19218         50.2038          0.8707               0               0          0.0000           57119             941          1.6474

ENER_0:   190000    -585809.6376      85157.5779          0.0000      83967.9527      -3087.2085    -751847.9597    -647189.8568      33522.4255   -7165902.1139    7027721.5855

STAT_0:   190000             208

MOVE_1:   190000           56838             899          1.5817

ENER_1:   190000     175881.7758     175881.7758          0.0000          0.0000          0.0000          0.0000          0.0000          0.0000          0.0000          0.0000

STAT_1:   190000             642

Steps/sec. : 1333.9357
MOVE_0:   200000           39739           19778         49.7697          0.3909           40246           20208         50.2112          0.8766               0               0          0.0000           60184             971          1.6134

ENER_0:   200000    -646863.1962      93663.4520          0.0000     101266.8036      -3360.1507    -838433.3010    -722589.7834      28524.1164   -7475965.1861    7331597.5522

STAT_0:   200000             217

MOVE_1:   200000           59831             938          1.5677

ENER_1:   200000     176519.3733     176519.3733          0.0000          0.0000          0.0000          0.0000          0.0000          0.0000          0.0000          0.0000

STAT_1:   200000             633

Steps/sec. : 1351.5004
MOVE_0:   210000           41771           20790         49.7714          0.3629           42269           21228         50.2212          0.8980               0               0          0.0000           63196             999          1.5808

ENER_0:   210000    -611133.5249      89368.9503          0.0000      73834.6196      -3116.9646    -771220.1302    -662149.5123      29156.6603   -7200353.5664    7062126.2882

STAT_0:   210000             209

MOVE_1:   210000           62764             958          1.5264

ENER_1:   210000     179661.7986     179661.7986          0.0000          0.0000          0.0000          0.0000          0.0000          0.0000          0.0000          0.0000

STAT_1:   210000             641

Steps/sec. : 1331.1371
MOVE_0:   220000           43847           21834         49.7959          0.3618           44263           22230         50.2225          0.9122               0               0          0.0000           66192            1037          1.5667

ENER_0:   220000    -545488.2765      91195.7877          0.0000      99695.3538      -2969.6114    -733409.8066    -628940.7207      31386.2580   -7028096.3040    6892240.9601

STAT_0:   220000             204

MOVE_1:   220000           65698             991          1.5084

ENER_1:   220000     180842.9246     180842.9246          0.0000          0.0000          0.0000          0.0000          0.0000          0.0000          0.0000          0.0000

STAT_1:   220000             646

Steps/sec. : 1358.0528
MOVE_0:   230000           45876           22860         49.8300          0.3989           46240           23229         50.2357          0.9747               0               0          0.0000           69076            1080          1.5635

ENER_0:   230000    -564971.5826      92957.7823          0.0000      84792.5224      -3057.5952    -739664.2921    -636831.3634      34872.2825   -7131450.6614    6993745.4502

STAT_0:   230000             207

MOVE_1:   230000           68808            1037          1.5071

ENER_1:   230000     176173.1607     176173.1607          0.0000          0.0000          0.0000          0.0000          0.0000          0.0000          0.0000          0.0000

STAT_1:   230000             643

Steps/sec. : 1317.3945
MOVE_0:   240000           47910           23873         49.8288          0.3792           48327           24271         50.2224          0.9356               0               0          0.0000           72053            1111          1.5419

ENER_0:   240000    -560708.2014      93147.5137          0.0000      69943.5434      -3028.1245    -720771.1340    -613610.4792      30235.4484   -7096999.2089    6959603.1058

STAT_0:   240000             206

MOVE_1:   240000           71710            1067          1.4879

ENER_1:   240000     179350.8645     179350.8645          0.0000          0.0000          0.0000          0.0000          0.0000          0.0000          0.0000          0.0000

STAT_1:   240000             644

Steps/sec. : 1342.5489
MOVE_0:   250000           49919           24892         49.8648          0.4227           50339           25271         50.2016          0.8708               0               0          0.0000           75048            1148          1.5297

ENER_0:   250000    -553640.1374      95533.7447          0.0000      97462.5498      -2969.6114    -743666.8205    -637603.9240      29882.6681   -7028096.3040    6892150.7394

STAT_0:   250000             204

MOVE_1:   250000           74694            1102          1.4754

ENER_1:   250000     184319.4878     184319.4878          0.0000          0.0000          0.0000          0.0000          0.0000          0.0000          0.0000          0.0000

STAT_1:   250000             646

Steps/sec. : 1326.1335
MOVE_0:   260000           51953           25896         49.8451          0.3675           52347           26292         50.2264          1.0065               0               0          0.0000           78117            1185          1.5170

ENER_0:   260000    -580708.7456      91710.6413          0.0000      85451.9946      -2854.2978    -755017.0836    -651881.5458      30119.6394   -6890290.4941    6757035.3169

STAT_0:   260000             200

MOVE_1:   260000           77583            1135          1.4629

ENER_1:   260000     194151.0108     194151.0108          0.0000          0.0000          0.0000          0.0000          0.0000          0.0000          0.0000          0.0000

STAT_1:   260000             650

Steps/sec. : 1355.8693
MOVE_0:   270000           54038           26951         49.8742          0.4038           54321           27278         50.2163          0.9684               0               0          0.0000           81113            1230          1.5164

ENER_0:   270000    -557506.6896      86108.5968          0.0000      94780.9568      -2769.3111    -735626.9321    -634747.4810      30667.7129   -6786936.1367    6655388.9726

STAT_0:   270000             197

MOVE_1:   270000           80528            1177          1.4616

ENER_1:   270000     203580.9872     203580.9872          0.0000          0.0000          0.0000          0.0000          0.0000          0.0000          0.0000          0.0000

STAT_1:   270000             653

Steps/sec. : 1370.9162
MOVE_0:   280000           55983           27920         49.8723          0.3586           56339           28275         50.1873          0.8610               0               0          0.0000           84141            1276          1.5165

ENER_0:   280000    -550797.9424      89887.9574          0.0000      95067.8998      -2741.2676    -733012.5320    -634128.0317      31927.8070   -6752484.6842    6621672.3769

STAT_0:   280000             196

MOVE_1:   280000           83537            1222          1.4628

ENER_1:   280000     212743.0271     212743.0271          0.0000          0.0000          0.0000          0.0000          0.0000          0.0000          0.0000          0.0000

STAT_1:   280000             654

Steps/sec. : 1334.9550
MOVE_0:   290000           57887           28880         49.8903          0.3675           58357           29292         50.1945          0.8944               0               0          0.0000           87119            1320          1.5152

ENER_0:   290000    -544482.4081      88564.9190          0.0000      76605.3564      -2685.6088    -706967.0747    -604861.6934      28133.6917   -6683581.7793    6553342.7063

STAT_0:   290000             194

MOVE_1:   290000           86637            1264          1.4590

ENER_1:   290000     211269.7622     211269.7622          0.0000          0.0000          0.0000          0.0000          0.0000          0.0000          0.0000          0.0000

STAT_1:   290000             656

Steps/sec. : 1403.3644
MOVE_0:   300000           59864           29872         49.8998          0.3681           60392           30315         50.1970          0.8905               0               0          0.0000           90099            1366          1.5161

ENER_0:   300000    -554665.0847      79195.0714          0.0000      82453.6943      -2685.6088    -713628.2416    -614633.7744      30661.5525   -6683581.7793    6553925.7596

STAT_0:   300000             194

MOVE_1:   300000           89645            1310          1.4613

ENER_1:   300000     208025.9401     208025.9401          0.0000          0.0000          0.0000          0.0000          0.0000          0.0000          0.0000          0.0000

STAT_1:   300000             656

Steps/sec. : 1333.1785
MOVE_0:   310000           61905           30900         49.9152          0.3752           62360           31299         50.1908          0.8825               0               0          0.0000           93054            1416          1.5217

ENER_0:   310000    -525511.4544      82293.4104          0.0000      78886.5163      -2442.2086    -684249.1725    -591633.6190      31251.0050   -6373518.7071    6249652.1486

STAT_0:   310000             185

MOVE_1:   310000           92681            1351          1.4577

ENER_1:   310000     207608.3224     207608.3224          0.0000          0.0000          0.0000          0.0000          0.0000          0.0000          0.0000          0.0000

STAT_1:   310000             665

Steps/sec. : 1371.6193
MOVE_0:   320000           63879           31888         49.9194          0.3536           64450           32354         50.2002          0.9268               0               0          0.0000           96017            1459          1.5195

ENER_0:   320000    -566807.7548      78061.2576          0.0000      87920.4794      -2522.0575    -730267.4343    -629982.0717      25121.4211   -6476873.0645    6351466.2808

STAT_0:   320000             188

MOVE_1:   320000           95654            1397          1.4605

ENER_1:   320000     204515.7059     204515.7059          0.0000          0.0000          0.0000          0.0000          0.0000          0.0000          0.0000          0.0000

STAT_1:   320000             662

Steps/sec. : 1401.8067
MOVE_0:   330000           65900           32915         49.9469          0.3847           66358           33319         50.2110          0.9942               0               0          0.0000           99046            1498          1.5124

ENER_0:   330000    -545138.8391      84614.4906          0.0000      94139.2852      -2576.0038    -721316.6111    -621430.0462      27144.6107   -6545775.9694    6418744.7939

STAT_0:   330000             190

MOVE_1:   330000           98696            1438          1.4570

ENER_1:   330000     210020.2856     210020.2856          0.0000          0.0000          0.0000          0.0000          0.0000          0.0000          0.0000          0.0000

STAT_1:   330000             660

Steps/sec. : 1343.6038
MOVE_0:   340000           67878           33902         49.9455          0.3722           68332           34305         50.2034          0.9345               0               0          0.0000          102094            1550          1.5182

ENER_0:   340000    -555186.9527      80693.9535          0.0000      90383.1638      -2603.1910    -723660.8790    -628451.8700      31887.4008   -6580227.4219    6453131.0120

STAT_0:   340000             191

MOVE_1:   340000          101696            1491          1.4661

ENER_1:   340000     215708.2718     215708.2718          0.0000          0.0000          0.0000          0.0000          0.0000          0.0000          0.0000          0.0000

STAT_1:   340000             659

Steps/sec. : 1403.4089
MOVE_0:   350000           69751           34834         49.9405          0.3487           70403           35350         50.2109          0.9868               0               0          0.0000          105085            1579          1.5026

ENER_0:   350000    -593486.6002      88801.3312          0.0000      91384.7221      -2911.6692    -770760.9844    -668063.4072      31712.0956   -6959193.3991    6824783.7263

STAT_0:   350000             202

MOVE_1:   350000          104761            1531          1.4614

ENER_1:   350000     215623.0966     215623.0966          0.0000          0.0000          0.0000          0.0000          0.0000          0.0000          0.0000          0.0000

STAT_1:   350000             648

Steps/sec. : 1336.4113
MOVE_0:   360000           71730           35830         49.9512          0.3600           72435           36367         50.2064          0.9390               0               0          0.0000          108101            1617          1.4958

ENER_0:   360000    -556493.7290      88065.3466          0.0000      97062.4692      -2769.3111    -738852.2337    -639869.0799      31615.0526   -6786936.1367    6656337.9303

STAT_0:   360000             197

MOVE_1:   360000          107734            1564          1.4517

ENER_1:   360000     220597.7331     220597.7331          0.0000          0.0000          0.0000          0.0000          0.0000          0.0000          0.0000          0.0000

STAT_1:   360000             653

Steps/sec. : 1320.2016
MOVE_0:   370000           73663           36795         49.9505          0.3378           74462           37385         50.2068          0.9775               0               0          0.0000          111136            1658          1.4919

ENER_0:   370000    -580061.5450      95293.6170          0.0000     108648.1657      -2940.5690    -781062.7587    -676236.9566      29507.4758   -6993644.8515    6859311.5736

STAT_0:   370000             203

MOVE_1:   370000          110739            1611          1.4548

ENER_1:   370000     225532.4553     225532.4553          0.0000          0.0000          0.0000          0.0000          0.0000          0.0000          0.0000          0.0000

STAT_1:   370000             647

Steps/sec. : 1337.4026
MOVE_0:   380000           75654           37795         49.9577          0.3357           76455           38377         50.1955          0.9211               0               0          0.0000          114162            1692          1.4821

ENER_0:   380000    -612575.8420      96810.9463          0.0000     114728.8534      -3116.9646    -820998.6771    -711813.6587      29149.2542   -7200353.5664    7062019.2937

STAT_0:   380000             209

MOVE_1:   380000          113729            1651          1.4517

ENER_1:   380000     211005.0238     211005.0238          0.0000          0.0000          0.0000          0.0000          0.0000          0.0000          0.0000          0.0000

STAT_1:   380000             641

Steps/sec. : 1289.8665
MOVE_0:   390000           77620           38788         49.9717          0.3449           78412           39361         50.1977          0.9562               0               0          0.0000          117229            1733          1.4783

ENER_0:   390000    -550374.8438      88905.0094          0.0000     101472.5384      -2825.8262    -737926.5654    -638469.2131      32503.2699   -6855839.0416    6723878.4195

STAT_0:   390000             199

MOVE_1:   390000          116739            1682          1.4408

ENER_1:   390000     209643.5500     209643.5500          0.0000          0.0000          0.0000          0.0000          0.0000          0.0000          0.0000          0.0000

STAT_1:   390000             651

Steps/sec. : 1369.8066
MOVE_0:   400000           79651           39809         49.9793          0.3605           80392           40339         50.1779          0.8366               0               0          0.0000          120241            1767          1.4695

ENER_0:   400000    -583598.9643      94225.8028          0.0000      78125.9290      -2969.6114    -752981.0847    -645341.8112      27518.8696   -7028096.3040    6892938.1610

STAT_0:   400000             204

MOVE_1:   400000          119716            1721          1.4376

ENER_1:   400000     205728.3394     205728.3394          0.0000          0.0000          0.0000          0.0000          0.0000          0.0000          0.0000          0.0000

STAT_1:   400000             646

Steps/sec. : 1347.0555
MOVE_0:   410000           81635           40813         49.9945          0.3767           82394           41350         50.1857          0.9007               0               0          0.0000          123254            1801          1.4612

ENER_0:   410000    -604715.0636      95935.2526          0.0000     117007.3837      -3176.9048    -814480.7951    -703451.6324      29188.8359   -7269256.4713    7129038.4726

STAT_0:   410000             211

MOVE_1:   410000          122717            1762          1.4358

ENER_1:   410000     200423.4861     200423.4861          0.0000          0.0000          0.0000          0.0000          0.0000          0.0000          0.0000          0.0000

STAT_1:   410000             639

Steps/sec. : 1408.9381
MOVE_0:   420000           83607           41805         50.0018          0.3834           84396           42347         50.1765          0.8176               0               0          0.0000          126261            1838          1.4557

ENER_0:   420000    -644170.3768      90322.0770          0.0000      92372.4806      -3146.8633    -823718.0710    -714578.2921      29949.6719   -7234805.0188    7095715.5680

STAT_0:   420000             210

MOVE_1:   420000          125736            1798          1.4300

ENER_1:   420000     199504.5073     199504.5073          0.0000          0.0000          0.0000          0.0000          0.0000          0.0000          0.0000          0.0000

STAT_1:   420000             640

Steps/sec. : 1386.9427
MOVE_0:   430000           85635           42817         49.9994          0.3760           86396           43348         50.1736          0.8163               0               0          0.0000          129152            1872          1.4495

ENER_0:   430000    -663317.9738      93100.6863          0.0000      95612.1301      -3146.8633    -848883.9268    -737262.1967      28144.1075   -7234805.0188    7095039.1812

STAT_0:   430000             210

MOVE_1:   430000          128817            1832          1.4222

ENER_1:   430000     200586.8539     200586.8539          0.0000          0.0000          0.0000          0.0000          0.0000          0.0000          0.0000          0.0000

STAT_1:   430000             640

Steps/sec. : 1366.4185
MOVE_0:   440000           87695           43839         49.9903          0.3474           88377           44346         50.1782          0.8644               0               0          0.0000          132165            1903          1.4399

ENER_0:   440000    -647660.3420      96632.6392          0.0000     133425.3822      -3391.1912    -874327.1721    -762164.7147      32461.8368   -7510416.6386    7365792.3444

STAT_0:   440000             218

MOVE_1:   440000          131763            1871          1.4200

ENER_1:   440000     196346.4094     196346.4094          0.0000          0.0000          0.0000          0.0000          0.0000          0.0000          0.0000          0.0000

STAT_1:   440000             632

Steps/sec. : 1421.7717
MOVE_0:   450000           89692           44834         49.9866          0.3246           90400           45350         50.1659          0.7972               0               0          0.0000          135120            1939          1.4350

ENER_0:   450000    -630608.8648      92525.2004          0.0000      99621.7762      -3087.2085    -819668.6329    -711511.2681      31260.0520   -7165902.1139    7026484.6971

STAT_0:   450000             208

MOVE_1:   450000          134788            1897          1.4074

ENER_1:   450000     205334.5352     205334.5352          0.0000          0.0000          0.0000          0.0000          0.0000          0.0000          0.0000          0.0000

STAT_1:   450000             642

Steps/sec. : 1416.9004
MOVE_0:   460000           91712           45859         50.0033          0.3670           92433           46369         50.1650          0.7954               0               0          0.0000          138155            1974          1.4288

ENER_0:   460000    -588142.5172      88114.7631          0.0000     102100.3593      -2882.9121    -775474.7275    -672331.2450      31196.7106   -6924741.9466    6790401.7536

STAT_0:   460000             201

MOVE_1:   460000          137700            1925          1.3980

ENER_1:   460000     208787.8692     208787.8692          0.0000          0.0000          0.0000          0.0000          0.0000          0.0000          0.0000          0.0000

STAT_1:   460000             649

Steps/sec. : 1416.9632
MOVE_0:   470000           93600           46791         49.9904          0.3086           94383           47349         50.1669          0.8102               0               0          0.0000          141253            2013          1.4251

ENER_0:   470000    -670800.6736      90116.6439          0.0000     120138.2208      -3176.9048    -877878.6335    -761939.7729      23940.6137   -7269256.4713    7129376.9970

STAT_0:   470000             211

MOVE_1:   470000          140764            1974          1.4023

ENER_1:   470000     199720.9821     199720.9821          0.0000          0.0000          0.0000          0.0000          0.0000          0.0000          0.0000          0.0000

STAT_1:   470000             639

Steps/sec. : 1364.8717
MOVE_0:   480000           95586           47804         50.0115          0.3402           96386           48374         50.1878          0.9910               0               0          0.0000          144287            2030          1.4069

ENER_0:   480000    -657757.5381      93548.8510          0.0000     121829.7914      -3391.1912    -869744.9892    -756247.6970      30883.8499   -7510416.6386    7366035.4964

STAT_0:   480000             218

MOVE_1:   480000          143741            1998          1.3900

ENER_1:   480000     197912.6565     197912.6565          0.0000          0.0000          0.0000          0.0000          0.0000          0.0000          0.0000          0.0000

STAT_1:   480000             632

Steps/sec. : 1369.5863
MOVE_0:   490000           97565           48803         50.0210          0.3620           98383           49376         50.1875          0.9750               0               0          0.0000          147258            2053          1.3942

ENER_0:   490000    -680417.6396      93291.3253          0.0000     112647.1380      -3548.5344    -882807.5685    -765114.7088      30204.8425   -7682673.9009    7534776.1986

STAT_0:   490000             223

MOVE_1:   490000          146794            2026          1.3802

ENER_1:   490000     199117.4218     199117.4218          0.0000          0.0000          0.0000          0.0000          0.0000          0.0000          0.0000          0.0000

STAT_1:   490000             627

Steps/sec. : 1435.6574
MOVE_0:   500000           99553           49783         50.0065          0.2889          100389           50374         50.1788          0.8830               0               0          0.0000          150263            2085          1.3876

ENER_0:   500000    -687364.8776      97742.3090          0.0000      99503.6105      -3644.6529    -880966.1442    -763066.7436      31833.5361   -7786028.2584    7636295.3216

STAT_0:   500000             226

MOVE_1:   500000          149795            2061          1.3759

ENER_1:   500000     204385.9339     204385.9339          0.0000          0.0000          0.0000          0.0000          0.0000          0.0000          0.0000          0.0000

STAT_1:   500000             624

Steps/sec. : 1397.2858
MOVE_0:   510000          101600           50848         50.0472          0.4085          102510           51447         50.1873          0.9015               0               0          0.0000          153132            2115          1.3812

ENER_0:   510000    -659432.0049      94522.1707          0.0000      87628.0703      -3360.1507    -838222.0951    -720384.2278      25811.0272   -7475965.1861    7332316.2916

STAT_0:   510000             217

MOVE_1:   510000          152758            2082          1.3629

ENER_1:   510000     204695.6195     204695.6195          0.0000          0.0000          0.0000          0.0000          0.0000          0.0000          0.0000          0.0000

STAT_1:   510000             633

Steps/sec. : 1409.5629
MOVE_0:   520000          103581           51823         50.0314          0.3340          104576           52475         50.1788          0.8503               0               0          0.0000          156093            2148          1.3761

ENER_0:   520000    -681112.8709      93590.1080          0.0000     114826.6296      -3548.5344    -885981.0741    -771312.5382      32472.1298   -7682673.9009    7535533.2353

STAT_0:   520000             223

MOVE_1:   520000          155750            2121          1.3618

ENER_1:   520000     196488.9163     196488.9163          0.0000          0.0000          0.0000          0.0000          0.0000          0.0000          0.0000          0.0000

STAT_1:   520000             627

Steps/sec. : 1447.4888
MOVE_0:   530000          105591           52836         50.0384          0.3614          106567           53467         50.1722          0.8062               0               0          0.0000          159115            2177          1.3682

ENER_0:   530000    -680067.2315      94704.8813          0.0000     106144.5306      -3516.7803    -877399.8631    -756565.7968      26310.7479   -7648222.4485    7501077.6343

STAT_0:   530000             222

MOVE_1:   530000          158727            2149          1.3539

ENER_1:   530000     196259.0532     196259.0532          0.0000          0.0000          0.0000          0.0000          0.0000          0.0000          0.0000          0.0000

STAT_1:   530000             628

Steps/sec. : 1411.7829
MOVE_0:   540000          107563           53834         50.0488          0.3938          108555           54482         50.1884          0.8891               0               0          0.0000          162165            2197          1.3548

ENER_0:   540000    -697426.5886     102284.0774          0.0000     104887.1048      -3644.6529    -900953.1180    -777529.1507      26485.0379   -7786028.2584    7636119.2533

STAT_0:   540000             226

MOVE_1:   540000          161717            2173          1.3437

ENER_1:   540000     199368.5800     199368.5800          0.0000          0.0000          0.0000          0.0000          0.0000          0.0000          0.0000          0.0000

STAT_1:   540000             624

Steps/sec. : 1386.8650
MOVE_0:   550000          109528           54799         50.0320          0.3047          110492           55461         50.1946          0.9573               0               0          0.0000          165239            2220          1.3435

ENER_0:   550000    -687500.5151     101251.7363          0.0000      99691.2758      -3612.4707    -884831.0565    -762469.6979      26555.5194   -7751576.8059    7602659.9279

STAT_0:   550000             225

MOVE_1:   550000          164741            2195          1.3324

ENER_1:   550000     203545.6092     203545.6092          0.0000          0.0000          0.0000          0.0000          0.0000          0.0000          0.0000          0.0000

STAT_1:   550000             625

Steps/sec. : 1414.8312
MOVE_0:   560000          111653           55876         50.0443          0.3323          112486           56450         50.1840          0.8421               0               0          0.0000          168235            2243          1.3333

ENER_0:   560000    -692643.5665     106711.7247          0.0000     118392.3630      -3612.4707    -914135.1835    -794354.0362      29644.1823   -7751576.8059    7602151.4763

STAT_0:   560000             225

MOVE_1:   560000          167626            2218          1.3232

ENER_1:   560000     204330.8291     204330.8291          0.0000          0.0000          0.0000          0.0000          0.0000          0.0000          0.0000          0.0000

STAT_1:   560000             625

Steps/sec. : 1426.5502
MOVE_0:   570000          113708           56909         50.0484          0.3490          114455           57436         50.1822          0.8373               0               0          0.0000          171161            2273          1.3280

ENER_0:   570000    -657545.8078      99060.1170          0.0000      91050.8094      -3360.1507    -844296.5835    -732574.6496      32536.9068   -7475965.1861    7331706.3454

STAT_0:   570000             217

MOVE_1:   570000          170676            2240          1.3124

ENER_1:   570000     208753.0029     208753.0029          0.0000          0.0000          0.0000          0.0000          0.0000          0.0000          0.0000          0.0000

STAT_1:   570000             633

Steps/sec. : 1399.4252
MOVE_0:   580000          115740           57936         50.0570          0.3797          116512           58468         50.1820          0.8300               0               0          0.0000          174122            2309          1.3261

ENER_0:   580000    -636237.5847      96411.9152          0.0000     101479.2190      -3237.4159    -830891.3030    -718241.4188      29284.8516   -7338159.3762    7196224.6405

STAT_0:   580000             213

MOVE_1:   580000          173626            2272          1.3086

ENER_1:   580000     207397.2845     207397.2845          0.0000          0.0000          0.0000          0.0000          0.0000          0.0000          0.0000          0.0000

STAT_1:   580000             637

Steps/sec. : 1595.5368
MOVE_0:   590000          117711           58933         50.0658          0.4093          118567           59523         50.2020          0.9756               0               0          0.0000          177169            2341          1.3213

ENER_0:   590000    -633997.3404      96857.1914          0.0000      99854.8297      -3207.0890    -827502.2725    -715279.4962      29276.5185   -7303707.9238    7162208.6290

STAT_0:   590000             212

MOVE_1:   590000          176553            2303          1.3044

ENER_1:   590000     211608.0700     211608.0700          0.0000          0.0000          0.0000          0.0000          0.0000          0.0000          0.0000          0.0000

STAT_1:   590000             638

Steps/sec. : 1548.1172
MOVE_0:   600000          119635           59898         50.0673          0.4066          120606           60546         50.2015          0.9473               0               0          0.0000          180244            2399          1.3310

ENER_0:   600000    -544930.5415      83428.5817          0.0000      69252.9965      -2713.3669    -694898.7529    -599131.2358      33261.2961   -6718033.2318    6589004.4186

STAT_0:   600000             195

MOVE_1:   600000          179515            2344          1.3057

ENER_1:   600000     216117.6807     216117.6807          0.0000          0.0000          0.0000          0.0000          0.0000          0.0000          0.0000          0.0000

STAT_1:   600000             655

Steps/sec. : 1578.2923
MOVE_0:   610000          121689           60933         50.0727          0.4217          122560           61532         50.2056          0.9927               0               0          0.0000          183202            2438          1.3308

ENER_0:   610000    -596477.0916      84825.7919          0.0000     104463.9701      -3028.1245    -782738.7291    -673925.9341      28452.7123   -7096999.2089    6959733.7017

STAT_0:   610000             206

MOVE_1:   610000          182549            2394          1.3114

ENER_1:   610000     218417.2374     218417.2374          0.0000          0.0000          0.0000          0.0000          0.0000          0.0000          0.0000          0.0000

STAT_1:   610000             644

Steps/sec. : 1586.1697
MOVE_0:   620000          123707           61921         50.0546          0.3372          124495           62499         50.2020          0.9542               0               0          0.0000          186271            2489          1.3362

ENER_0:   620000    -579518.3705      84540.8851          0.0000     101573.7801      -2825.8262    -762807.2095    -660771.7545      30843.2020   -6855839.0416    6722960.3845

STAT_0:   620000             199

MOVE_1:   620000          185527            2438          1.3141

ENER_1:   620000     222495.8796     222495.8796          0.0000          0.0000          0.0000          0.0000          0.0000          0.0000          0.0000          0.0000

STAT_1:   620000             651

Steps/sec. : 1591.5763
MOVE_0:   630000          125709           62935         50.0640          0.3779          126487           63493         50.1973          0.9096               0               0          0.0000          189308            2521          1.3317

ENER_0:   630000    -574953.2538      91043.4375          0.0000      96358.8438      -2969.6114    -759385.9237    -651670.1229      28305.3300   -7028096.3040    6892075.1732

STAT_0:   630000             204

MOVE_1:   630000          188496            2475          1.3130

ENER_1:   630000     223918.9022     223918.9022          0.0000          0.0000          0.0000          0.0000          0.0000          0.0000          0.0000          0.0000

STAT_1:   630000             646

Steps/sec. : 1772.8277
MOVE_0:   640000          127735           63947         50.0622          0.3756          128496           64494         50.1914          0.8326               0               0          0.0000          192299            2557          1.3297

ENER_0:   640000    -585644.7206      83047.2098          0.0000      98279.7214      -2911.6692    -764059.9826    -662309.7972      32375.5327   -6959193.3991    6825067.6810

STAT_0:   640000             202

MOVE_1:   640000          191470            2509          1.3104

ENER_1:   640000     220943.4208     220943.4208          0.0000          0.0000          0.0000          0.0000          0.0000          0.0000          0.0000          0.0000

STAT_1:   640000             648

Steps/sec. : 1762.4351
MOVE_0:   650000          129663           64915         50.0644          0.3874          130553           65523         50.1888          0.7817               0               0          0.0000          195370            2595          1.3282

ENER_0:   650000    -577485.9205      81965.7450          0.0000      93107.1605      -2911.6692    -749647.1569    -646792.3694      31751.1436   -6959193.3991    6824587.4679

STAT_0:   650000             202

MOVE_1:   650000          194414            2547          1.3101

ENER_1:   650000     212779.9221     212779.9221          0.0000          0.0000          0.0000          0.0000          0.0000          0.0000          0.0000          0.0000

STAT_1:   650000             648

Steps/sec. : 1759.7330
MOVE_0:   660000          131583           65876         50.0642          0.3811          132616           66584         50.2081          1.0105               0               0          0.0000          198422            2634          1.3275

ENER_0:   660000    -570224.4952      82957.9555          0.0000      87869.7493      -2854.2978    -738197.9022    -630706.7304      26079.9435   -6890290.4941    6756719.3788

STAT_0:   660000             200

MOVE_1:   660000          197379            2584          1.3092

ENER_1:   660000     216980.1546     216980.1546          0.0000          0.0000          0.0000          0.0000          0.0000          0.0000          0.0000          0.0000

STAT_1:   660000             650

Steps/sec. : 1780.2794
MOVE_0:   670000          133580           66886         50.0719          0.4186          134577           67553         50.1965          0.8912               0               0          0.0000          201399            2673          1.3272

ENER_0:   670000    -568382.6168      92990.4725          0.0000      79536.8048      -2882.9121    -738026.9820    -635129.6706      31576.7375   -6924741.9466    6790267.8976

STAT_0:   670000             201

MOVE_1:   670000          200444            2624          1.3091

ENER_1:   670000     218411.3163     218411.3163          0.0000          0.0000          0.0000          0.0000          0.0000          0.0000          0.0000          0.0000

STAT_1:   670000             649

Steps/sec. : 1791.0655
MOVE_0:   680000          135560           67877         50.0716          0.4114          136591           68556         50.1907          0.8237               0               0          0.0000          204497            2720          1.3301

ENER_0:   680000    -559771.4905      85948.4486          0.0000      88774.2327      -2495.2985    -731998.8733    -635448.7788      29111.3657   -6442421.6120    6316760.1518

STAT_0:   680000             187

MOVE_1:   680000          203352            2657          1.3066

ENER_1:   680000     224409.4024     224409.4024          0.0000          0.0000          0.0000          0.0000          0.0000          0.0000          0.0000          0.0000

STAT_1:   680000             663

Steps/sec. : 1793.6466
MOVE_0:   690000          137572           68884         50.0712          0.3969          138573           69564         50.2003          0.9613               0               0          0.0000          207615            2769          1.3337

ENER_0:   690000    -545590.4147      82590.7873          0.0000      95643.8028      -2548.9593    -721276.0454    -627154.0873      31944.8422   -6511324.5169    6385257.7165

STAT_0:   690000             189

MOVE_1:   690000          206240            2708          1.3130

ENER_1:   690000     226441.5684     226441.5684          0.0000          0.0000          0.0000          0.0000          0.0000          0.0000          0.0000          0.0000

STAT_1:   690000             661

Steps/sec. : 1756.2618
MOVE_0:   700000          139619           69896         50.0620          0.3500          140613           70583         50.1966          0.9072               0               0          0.0000          210560            2807          1.3331

ENER_0:   700000    -578271.4890      82412.3238          0.0000      95755.8119      -2741.2676    -753698.3571    -651481.8023      28865.2837   -6752484.6842    6621402.8457

STAT_0:   700000             196

MOVE_1:   700000          209208            2753          1.3159

ENER_1:   700000     232049.1116     232049.1116          0.0000          0.0000          0.0000          0.0000          0.0000          0.0000          0.0000          0.0000

STAT_1:   700000             654

Steps/sec. : 1808.7193
MOVE_0:   710000          141569           70889         50.0738          0.3765          142699           71622         50.1910          0.7937               0               0          0.0000          213508            2839          1.3297

ENER_0:   710000    -575402.5812      80561.9026          0.0000     107407.5320      -2797.4973    -760574.5186    -657303.4350      28259.5374   -6821387.5892    6689856.9683

STAT_0:   710000             198

MOVE_1:   710000          212224            2787          1.3132

ENER_1:   710000     229942.9225     229942.9225          0.0000          0.0000          0.0000          0.0000          0.0000          0.0000          0.0000          0.0000

STAT_1:   710000             652

Steps/sec. : 1937.2404
MOVE_0:   720000          143605           71914         50.0776          0.3953          144631           72599         50.1960          0.8371               0               0          0.0000          216515            2883          1.3315

ENER_0:   720000    -578401.2024      77175.5569          0.0000      73715.9434      -2657.9935    -726634.7093    -623944.3930      25939.1668   -6649130.3268    6520500.8438

STAT_0:   720000             193

MOVE_1:   720000          215249            2826          1.3129

ENER_1:   720000     233296.7170     233296.7170          0.0000          0.0000          0.0000          0.0000          0.0000          0.0000          0.0000          0.0000

STAT_1:   720000             657

Steps/sec. : 1948.2669
MOVE_0:   730000          145555           72870         50.0635          0.3214          146661           73628         50.2028          0.8815               0               0          0.0000          219550            2908          1.3245

ENER_0:   730000    -630779.2873      81520.6397          0.0000      95656.6950      -3028.1245    -804928.4974    -695657.2697      28288.7057   -7096999.2089    6959439.2755

STAT_0:   730000             206

MOVE_1:   730000          218234            2864          1.3124

ENER_1:   730000     228759.6415     228759.6415          0.0000          0.0000          0.0000          0.0000          0.0000          0.0000          0.0000          0.0000

STAT_1:   730000             644

Steps/sec. : 1961.1281
MOVE_0:   740000          147530           73881         50.0786          0.3930          148662           74647         50.2126          0.9747               0               0          0.0000          222537            2951          1.3261

ENER_0:   740000    -583973.4993      82616.5276          0.0000      86094.5160      -2825.8262    -749858.7168    -647272.3550      30774.4660   -6855839.0416    6722478.2139

STAT_0:   740000             199

MOVE_1:   740000          221271            2900          1.3106

ENER_1:   740000     235234.8885     235234.8885          0.0000          0.0000          0.0000          0.0000          0.0000          0.0000          0.0000          0.0000

STAT_1:   740000             651

Steps/sec. : 1860.8193
MOVE_0:   750000          149619           74931         50.0812          0.3805          150636           75638         50.2124          0.9988               0               0          0.0000          225476            2997          1.3292

ENER_0:   750000    -570592.4902      82055.4240          0.0000     105194.4403      -2769.3111    -755073.0434    -656502.1327      33638.8911   -6786936.1367    6654726.3348

STAT_0:   750000             197

MOVE_1:   750000          224269            2944          1.3127

ENER_1:   750000     237037.5000     237037.5000          0.0000          0.0000          0.0000          0.0000          0.0000          0.0000          0.0000          0.0000

STAT_1:   750000             653

Steps/sec. : 1889.7437
MOVE_0:   760000          151661           75948         50.0775          0.3625          152665           76640         50.2014          0.8723               0               0          0.0000          228397            3029          1.3262

ENER_0:   760000    -641664.5509      82760.9318          0.0000     101222.7003      -3116.9646    -822531.2184    -710468.6398      27664.0958   -7200353.5664    7060626.8920

STAT_0:   760000             209

MOVE_1:   760000          227277            2988          1.3147

ENER_1:   760000     236994.2192     236994.2192          0.0000          0.0000          0.0000          0.0000          0.0000          0.0000          0.0000          0.0000

STAT_1:   760000             641

Steps/sec. : 1794.4162
MOVE_0:   770000          153625           76924         50.0726          0.3268          154729           77683         50.2058          0.9264               0               0          0.0000          231415            3059          1.3219

ENER_0:   770000    -653529.8419      83550.7418          0.0000      96081.7063      -3267.8856    -829894.4045    -716542.7154      29392.9575   -7372610.8287    7229866.1822

STAT_0:   770000             214

MOVE_1:   770000          230231            3023          1.3130

ENER_1:   770000     235699.7011     235699.7011          0.0000          0.0000          0.0000          0.0000          0.0000          0.0000          0.0000          0.0000

STAT_1:   770000             636

Steps/sec. : 1951.3143
MOVE_0:   780000          155618           77921         50.0720          0.3265          156702           78672         50.2048          0.9322               0               0          0.0000          234408            3089          1.3178

ENER_0:   780000    -647720.5010      90480.3129          0.0000     111701.4153      -3207.0890    -846695.1402    -734164.7038      28301.4695   -7303707.9238    7162876.0178

STAT_0:   780000             212

MOVE_1:   780000          233272            3051          1.3079

ENER_1:   780000     234065.3491     234065.3491          0.0000          0.0000          0.0000          0.0000          0.0000          0.0000          0.0000          0.0000

STAT_1:   780000             638

Steps/sec. : 1923.3558
MOVE_0:   790000          157552           78918         50.0901          0.4109          158760           79693         50.1972          0.8448               0               0          0.0000          237432            3124          1.3157

ENER_0:   790000    -628760.5927      87569.1602          0.0000      84047.5471      -3176.9048    -797200.3953    -685687.1662      28569.9885   -7269256.4713    7129173.2536

STAT_0:   790000             211

MOVE_1:   790000          236256            3085          1.3058

ENER_1:   790000     233250.8411     233250.8411          0.0000          0.0000          0.0000          0.0000          0.0000          0.0000          0.0000          0.0000

STAT_1:   790000             639

Steps/sec. : 1938.5691
MOVE_0:   800000          159542           79912         50.0884          0.3845          160764           80701         50.1984          0.8557               0               0          0.0000          240418            3143          1.3073

ENER_0:   800000    -710794.1719      92139.8607          0.0000     115753.1872      -3485.1690    -915202.0508    -794591.1010      25327.5379   -7613770.9960    7467832.5083

STAT_0:   800000             221

MOVE_1:   800000          239276            3114          1.3014

ENER_1:   800000     226788.8245     226788.8245          0.0000          0.0000          0.0000          0.0000          0.0000          0.0000          0.0000          0.0000

STAT_1:   800000             629

Steps/sec. : 1845.1107
MOVE_0:   810000          161513           80882         50.0777          0.3173          162770           81689         50.1868          0.7244               0               0          0.0000          243442            3169          1.3017

ENER_0:   810000    -661257.4797      89512.5169          0.0000     110402.2059      -3329.2530    -857842.9495    -743114.5101      27482.4863   -7441513.7336    7299302.8080

STAT_0:   810000             216

MOVE_1:   810000          242275            3135          1.2940

ENER_1:   810000     228553.4608     228553.4608          0.0000          0.0000          0.0000          0.0000          0.0000          0.0000          0.0000          0.0000

STAT_1:   810000             634

Steps/sec. : 1884.2267
MOVE_0:   820000          163504           81894         50.0868          0.3740          164767           82715         50.2012          0.8614               0               0          0.0000          246406            3207          1.3015

ENER_0:   820000    -659332.0766      82907.2867          0.0000     115294.6285      -3207.0890    -854326.9028    -744444.5179      29519.7581   -7303707.9238    7164305.7807

STAT_0:   820000             212

MOVE_1:   820000          245323            3169          1.2918

ENER_1:   820000     233585.3522     233585.3522          0.0000          0.0000          0.0000          0.0000          0.0000          0.0000          0.0000          0.0000

STAT_1:   820000             638

Steps/sec. : 1892.8167
MOVE_0:   830000          165477           82869         50.0789          0.3252          166801           83740         50.2035          0.8498               0               0          0.0000          249432            3232          1.2957

ENER_0:   830000    -667271.0957      81524.0998          0.0000     117176.6591      -3267.8856    -862703.9690    -751088.0659      29347.4475   -7372610.8287    7231647.4781

STAT_0:   830000             214

MOVE_1:   830000          248290            3196          1.2872

ENER_1:   830000     233884.1040     233884.1040          0.0000          0.0000          0.0000          0.0000          0.0000          0.0000          0.0000          0.0000

STAT_1:   830000             636

Steps/sec. : 1923.1934
MOVE_0:   840000          167482           83868         50.0758          0.3061          168756           84716         50.2003          0.8373               0               0          0.0000          252505            3264          1.2926

ENER_0:   840000    -653120.3316      80895.6800          0.0000     113140.7846      -3207.0890    -843949.7072    -730913.4464      27114.2348   -7303707.9238    7163557.4282

STAT_0:   840000             212

MOVE_1:   840000          251257            3226          1.2839

ENER_1:   840000     234073.4038     234073.4038          0.0000          0.0000          0.0000          0.0000          0.0000          0.0000          0.0000          0.0000

STAT_1:   840000             638

Steps/sec. : 1907.6630
MOVE_0:   850000          169535           84910         50.0841          0.3392          170718           85700         50.1997          0.8610               0               0          0.0000          255548            3298          1.2906

ENER_0:   850000    -636801.1199      84507.6103          0.0000     143585.6505      -3176.9048    -861717.4758    -749808.2205      27945.0304   -7269256.4713    7129402.1855

STAT_0:   850000             211

MOVE_1:   850000          254199            3259          1.2821

ENER_1:   850000     220701.7521     220701.7521          0.0000          0.0000          0.0000          0.0000          0.0000          0.0000          0.0000          0.0000

STAT_1:   850000             639

Steps/sec. : 1898.6995
MOVE_0:   860000          171604           85959         50.0915          0.3816          172735           86727         50.2081          0.9635               0               0          0.0000          258508            3330          1.2882

ENER_0:   860000    -627987.5983      89887.3715          0.0000      90788.8243      -3087.2085    -805576.5855    -692659.4639      25661.5504   -7165902.1139    7027323.4418

STAT_0:   860000             208

MOVE_1:   860000          257153            3288          1.2786

ENER_1:   860000     216726.8907     216726.8907          0.0000          0.0000          0.0000          0.0000          0.0000          0.0000          0.0000          0.0000

STAT_1:   860000             642

Steps/sec. : 1837.5111
MOVE_0:   870000          173634           86975         50.0910          0.3637          174740           87724         50.2026          0.8769               0               0          0.0000          261506            3356          1.2833

ENER_0:   870000    -663851.7148      94575.9179          0.0000     150304.7542      -3422.3744    -905310.0124    -785367.8518      26361.8019   -7544868.0911    7398564.1286

STAT_0:   870000             219

MOVE_1:   870000          260120            3325          1.2783

ENER_1:   870000     212317.9962     212317.9962          0.0000          0.0000          0.0000          0.0000          0.0000          0.0000          0.0000          0.0000

STAT_1:   870000             631

Steps/sec. : 1895.9150
MOVE_0:   880000          175639           87986         50.0948          0.3524          176759           88750         50.2096          0.9600               0               0          0.0000          264437            3394          1.2835

ENER_0:   880000    -672688.2533      93992.2383          0.0000      94596.6121      -3207.0890    -858070.0148    -746754.7085      31048.4807   -7303707.9238    7161344.1368

STAT_0:   880000             212

MOVE_1:   880000          263165            3356          1.2752

ENER_1:   880000     216128.6167     216128.6167          0.0000          0.0000          0.0000          0.0000          0.0000          0.0000          0.0000          0.0000

STAT_1:   880000             638

Steps/sec. : 1888.7649
MOVE_0:   890000          177687           89011         50.0943          0.3492          178743           89734         50.2028          0.8364               0               0          0.0000          267448            3431          1.2829

ENER_0:   890000    -640719.2023      98660.3064          0.0000      91471.2120      -3267.8856    -827582.8351    -716614.9588      32381.5920   -7372610.8287    7229261.3605

STAT_0:   890000             214

MOVE_1:   890000          266122            3395          1.2757

ENER_1:   890000     209188.6253     209188.6253          0.0000          0.0000          0.0000          0.0000          0.0000          0.0000          0.0000          0.0000

STAT_1:   890000             636

Steps/sec. : 1916.9361
MOVE_0:   900000          179756           90055         50.0985          0.3749          180682           90714         50.2064          0.9052               0               0          0.0000          270445            3462          1.2801

ENER_0:   900000    -644530.0207      98858.1172          0.0000      84792.1331      -3298.4979    -824881.7731    -713030.8948      32257.2380   -7407062.2812    7262954.1649

STAT_0:   900000             215

MOVE_1:   900000          269117            3427          1.2734

ENER_1:   900000     210445.8705     210445.8705          0.0000          0.0000          0.0000          0.0000          0.0000          0.0000          0.0000          0.0000

STAT_1:   900000             635

Steps/sec. : 1916.3898
MOVE_0:   910000          181705           91017         50.0905          0.3208          182714           91728         50.2030          0.8857               0               0          0.0000          273466            3490          1.2762

ENER_0:   910000    -656240.2947      98407.1046          0.0000     126872.9700      -3391.1912    -878129.1781    -762115.3340      30074.3786   -7510416.6386    7364328.4159

STAT_0:   910000             218

MOVE_1:   910000          272115            3458          1.2708

ENER_1:   910000     207379.1202     207379.1202          0.0000          0.0000          0.0000          0.0000          0.0000          0.0000          0.0000          0.0000

STAT_1:   910000             632

Steps/sec. : 1914.4711
MOVE_0:   920000          183626           92001         50.1024          0.3885          184740           92748         50.2046          0.8888               0               0          0.0000          276468            3523          1.2743

ENER_0:   920000    -696960.0622      92419.0788          0.0000      87956.3410      -3516.7803    -873818.7017    -755404.2876      29703.4636   -7648222.4485    7500104.5708

STAT_0:   920000             222

MOVE_1:   920000          275166            3495          1.2701

ENER_1:   920000     212600.4976     212600.4976          0.0000          0.0000          0.0000          0.0000          0.0000          0.0000          0.0000          0.0000

STAT_1:   920000             628

Steps/sec. : 1904.8475
MOVE_0:   930000          185669           93024         50.1021          0.3752          186778           93774         50.2061          0.9253               0               0          0.0000          279455            3552          1.2710

ENER_0:   930000    -697039.5401      93394.8206          0.0000      91379.5642      -3453.7003    -878360.2246    -760109.9999      28643.3752   -7579319.5435    7432425.9436

STAT_0:   930000             220

MOVE_1:   930000          278098            3522          1.2665

ENER_1:   930000     213033.4642     213033.4642          0.0000          0.0000          0.0000          0.0000          0.0000          0.0000          0.0000          0.0000

STAT_1:   930000             630

Steps/sec. : 1872.1649
MOVE_0:   940000          187650           93998         50.0922          0.3197          188774           94793         50.2151          1.0534               0               0          0.0000          282541            3595          1.2724

ENER_0:   940000    -650950.0203      92575.0495          0.0000     123831.3385      -3146.8633    -864209.5449    -750924.2414      27191.6977   -7234805.0188    7094328.0175

STAT_0:   940000             210

MOVE_1:   940000          281035            3555          1.2650

ENER_1:   940000     215146.2670     215146.2670          0.0000          0.0000          0.0000          0.0000          0.0000          0.0000          0.0000          0.0000

STAT_1:   940000             640

Steps/sec. : 1907.9454
MOVE_0:   950000          189621           94992         50.0957          0.3361          190825           95808         50.2073          0.8692               0               0          0.0000          285518            3622          1.2686

ENER_0:   950000    -650286.6627      94513.9189          0.0000     116370.6823      -3329.2530    -857842.0109    -744106.5237      29850.1817   -7441513.7336    7297928.0647

STAT_0:   950000             216

MOVE_1:   950000          284036            3588          1.2632

ENER_1:   950000     220393.3762     220393.3762          0.0000          0.0000          0.0000          0.0000          0.0000          0.0000          0.0000          0.0000

STAT_1:   950000             634

Steps/sec. : 1923.0699
MOVE_0:   960000          191637           96020         50.1051          0.3843          192784           96797         50.2101          0.9194               0               0          0.0000          288556            3658          1.2677

ENER_0:   960000    -600208.9894      96211.8815          0.0000      90626.0759      -2969.6114    -784077.3354    -677344.5277      28925.3363   -7028096.3040    6892438.1600

STAT_0:   960000             204

MOVE_1:   960000          287023            3612          1.2584

ENER_1:   960000     218509.6259     218509.6259          0.0000          0.0000          0.0000          0.0000          0.0000          0.0000          0.0000          0.0000

STAT_1:   960000             646

Steps/sec. : 1920.0834
MOVE_0:   970000          193613           97007         50.1036          0.3765          194808           97803         50.2048          0.8373               0               0          0.0000          291498            3703          1.2703

ENER_0:   970000    -608883.8115      82085.0853          0.0000      95643.3100      -2854.2978    -783757.9089    -678934.6344      29135.9611   -6890290.4941    6756331.2584

STAT_0:   970000             200

MOVE_1:   970000          290081            3653          1.2593

ENER_1:   970000     222737.2000     222737.2000          0.0000          0.0000          0.0000          0.0000          0.0000          0.0000          0.0000          0.0000

STAT_1:   970000             650

Steps/sec. : 1945.0205
MOVE_0:   980000          195538           97964         50.0997          0.3554          196786           98793         50.2033          0.8155               0               0          0.0000          294529            3740          1.2698

ENER_0:   980000    -613643.0848      91191.2565          0.0000     122897.8144      -3087.2085    -824644.9472    -716242.6393      31871.0703   -7165902.1139    7025628.7357

STAT_0:   980000             208

MOVE_1:   980000          293147            3698          1.2615

ENER_1:   980000     220362.9505     220362.9505          0.0000          0.0000          0.0000          0.0000          0.0000          0.0000          0.0000          0.0000

STAT_1:   980000             642

Steps/sec. : 1857.6436
MOVE_0:   990000          197489           98940         50.0990          0.3454          198733           99764         50.2000          0.7724               0               0          0.0000          297576            3775          1.2686

ENER_0:   990000    -642355.3299      87857.1630          0.0000     114318.4145      -3116.9646    -841413.9429    -731781.3796      30211.4503   -7200353.5664    7060509.5527

STAT_0:   990000             209

MOVE_1:   990000          296202            3734          1.2606

ENER_1:   990000     219638.4639     219638.4639          0.0000          0.0000          0.0000          0.0000          0.0000          0.0000          0.0000          0.0000

STAT_1:   990000             641

Steps/sec. : 1880.9402
MOVE_0:  1000000          199443           99928         50.1035          0.3712          200724          100771         50.2038          0.8495               0               0          0.0000          300540            3809          1.2674

ENER_0:  1000000    -643529.1775      88798.1101          0.0000      99105.2330      -3298.4979    -828134.0227    -715506.4164      31171.0518   -7407062.2812    7263263.6231

STAT_0:  1000000             215

MOVE_1:  1000000          299293            3774          1.2610

ENER_1:  1000000     221415.9155     221415.9155          0.0000          0.0000          0.0000          0.0000          0.0000          0.0000          0.0000          0.0000

STAT_1:  1000000             635

Simulation Time (total): 601.3355sec.
GOMC Serial Version 1.9
Completed at: Sat Apr 22 21:56:40 2017
On hostname: potoff14.eng.wayne.edu
