GOMC Serial Version 2.0
Started at: Sat Apr 22 18:03:28 2017
On hostname: potoff39.eng.wayne.edu

Total number of CPUs: 4
Total number of CPUs available: 4
Model name: Intel(R) Core(TM) i5-2500K CPU @ 3.30GHz

System name: Linux
Release: 2.6.32-642.4.2.el6.x86_64
Version: #1 SMP Tue Aug 23 19:58:13 UTC 2016
Kernel Architecture: x86_64
Total Ram: 7856.3MB
Used Ram: 5682.0MB
Working in the current directory /home3/soroush/Desktop/validation/GOMC_Examples/NVT/butane_T_300_00_K

------------------------------------------------------
This code was compiled to support the canonical (NVT) ensemble.
------------------------------------------------------

REMINDER: EXOTIC force field has been selected!
Temperature of system has been set to 300.00000 K 
Note: Pressure will be calculated every 1000 steps.
Warning: Unknown input HistogramFreq!
Warning: Electrostatic energy would not be calculated!
Reading from Exotic Parameter File file: ./../../common/Par_Mie_Alkane_Exotic.inp
Finished reading Exotic Parameter File file: ./../../common/Par_Mie_Alkane_Exotic.inp
Reading from system PDB coordinate file file: ./STEP3_START_C4P_sys_BOX_0.pdb
Finished reading system PDB coordinate file file: ./STEP3_START_C4P_sys_BOX_0.pdb
Random number seed: 688078648

Molecules in PSF:
Molecule Kind: C4P
Idx	name	type	charge	mass
0	C1	CH3	0.0000	15.0350
1	C2	CH2	0.0000	14.0270
2	C3	CH2	0.0000	14.0270
3	C4	CH3	0.0000	15.0350
Bonds:
[0 1] [1 2] [2 3] 
Angles:
[0 1 2] [1 2 3] 
Dihedrals:
[0 1 2 3] 

REMINDER! 1-3 and 1-4 Interaction is OFF
Minimum coordinates in box 0: x =    1.247, y =    1.000, z =    1.172
Maximum coordinates in box 0: x =  238.981, y =  238.979, z =  239.000

###############################################################################
########################## INITIAL SIMULATION ENERGY ##########################

ETITLE:     STEP           TOTAL        INTRA(B)       INTRA(NB)       INTER(LJ)             LRC     TOTAL_ELECT            REAL           RECIP            SELF            CORR

ENER_0:        0    4254277.5858         18.0492          0.0000    4256206.4317      -1946.8951          0.0000          0.0000          0.0000          0.0000         -0.0000

###############################################################################
############################# STARTING SIMULATION #############################

MTITLE:     STEP          DISTRY       DISACCEPT      DISACCEPT%          DISMAX          ROTATE       ROTACCEPT      ROTACCEPT%          ROTMAX       INTRASWAP       INTACCEPT      INTACCEPT%

ETITLE:     STEP           TOTAL        INTRA(B)       INTRA(NB)       INTER(LJ)             LRC     TOTAL_ELECT            REAL           RECIP            SELF            CORR

STITLE:     STEP        PRESSURE        TOTALMOL     TOT_DENSITY

Printed combined psf to file butane_300_00_K_merged.psf
MOVE_0:   100000           59858           48778         81.4895        122.7900           10073            9530         94.6094          3.1416           30069           20348         67.6710

ENER_0:   100000     553528.2475     601689.1882          0.0000     -46214.0456      -1946.8951          0.0000          0.0000          0.0000          0.0000          0.0000

STAT_0:   100000          2.7282            1000          6.5167

PRES_0:   100000         -0.0856         -0.0085         -0.0020

Steps/sec. : 26465.7051
MOVE_0:   200000          119998           98183         81.8205        122.7900           20058           19015         94.8001          3.1416           59944           40609         67.7449

ENER_0:   200000     557155.4652     604130.5387          0.0000     -45028.1784      -1946.8951          0.0000          0.0000          0.0000          0.0000          0.0000

STAT_0:   200000          2.5220            1000          6.5167

PRES_0:   200000         -0.3316         -0.1438         -0.2394

Steps/sec. : 27371.0206
MOVE_0:   300000          180024          147735         82.0641        122.7900           30007           28485         94.9279          3.1416           89969           61005         67.8067

ENER_0:   300000     592293.0742     627842.2407          0.0000     -33602.2714      -1946.8951          0.0000          0.0000          0.0000          0.0000          0.0000

STAT_0:   300000          2.8223            1000          6.5167

PRES_0:   300000         -0.1944          0.1915          0.1890

Steps/sec. : 27262.0251
MOVE_0:   400000          239944          196866         82.0466        122.7900           40126           38085         94.9135          3.1416          119930           81397         67.8704

ENER_0:   400000     562095.8057     615904.9736          0.0000     -51862.2727      -1946.8951          0.0000          0.0000          0.0000          0.0000          0.0000

STAT_0:   400000          2.5921            1000          6.5167

PRES_0:   400000         -0.0980         -0.2865         -0.1200

Steps/sec. : 27339.1301
MOVE_0:   500000          300067          246351         82.0987        122.7900           50185           47678         95.0045          3.1416          149748          101619         67.8600

ENER_0:   500000     558738.1093     606899.7268          0.0000     -46214.7223      -1946.8951          0.0000          0.0000          0.0000          0.0000          0.0000

STAT_0:   500000          2.4254            1000          6.5167

PRES_0:   500000         -0.2956         -0.3799         -0.3291

Steps/sec. : 27428.3245
MOVE_0:   600000          359981          295576         82.1088        122.7900           60000           57001         95.0017          3.1416          180019          122166         67.8628

ENER_0:   600000     564969.6606     605481.1306          0.0000     -38564.5749      -1946.8951          0.0000          0.0000          0.0000          0.0000          0.0000

STAT_0:   600000          2.5306            1000          6.5167

PRES_0:   600000         -0.2606         -0.2072         -0.2214

Steps/sec. : 26663.2339
MOVE_0:   700000          419918          344950         82.1470        122.7900           70031           66519         94.9851          3.1416          210051          142683         67.9278

ENER_0:   700000     568086.4112     611089.4089          0.0000     -41056.1026      -1946.8951          0.0000          0.0000          0.0000          0.0000          0.0000

STAT_0:   700000          2.6929            1000          6.5167

PRES_0:   700000         -0.1856          0.0238         -0.0403

Steps/sec. : 26454.7113
MOVE_0:   800000          479922          394198         82.1379        122.7900           80030           76014         94.9819          3.1416          240048          163043         67.9210

ENER_0:   800000     611234.0755     662025.8514          0.0000     -48844.8807      -1946.8951          0.0000          0.0000          0.0000          0.0000          0.0000

STAT_0:   800000          2.4979            1000          6.5167

PRES_0:   800000         -0.2322         -0.2816         -0.2733

Steps/sec. : 26401.6438
MOVE_0:   900000          539969          443221         82.0827        122.7900           90012           85513         95.0018          3.1416          270019          183408         67.9241

ENER_0:   900000     561139.2428     606347.7367          0.0000     -43261.5988      -1946.8951          0.0000          0.0000          0.0000          0.0000          0.0000

STAT_0:   900000          2.3583            1000          6.5167

PRES_0:   900000         -0.3399         -0.4450         -0.4210

Steps/sec. : 26441.3644
MOVE_0:  1000000          600068          492581         82.0875        122.7900          100030           95075         95.0465          3.1416          299902          203608         67.8915

ENER_0:  1000000     574979.6349     610448.6753          0.0000     -33522.1452      -1946.8951          0.0000          0.0000          0.0000          0.0000          0.0000

STAT_0:  1000000          2.5126            1000          6.5167

PRES_0:  1000000         -0.3857          0.0779         -0.4353

Simulation Time (total): 37.4706sec.
GOMC Serial Version 2.0
Completed at: Sat Apr 22 18:04:05 2017
On hostname: potoff39.eng.wayne.edu
