GOMC Serial Version 1.9
Started at: Sat Apr 22 20:34:57 2017
On hostname: potoff39.eng.wayne.edu

Total number of CPUs: 4
Total number of CPUs available: 4
Model name: Intel(R) Core(TM) i5-2500K CPU @ 3.30GHz

System name: Linux
Release: 2.6.32-642.4.2.el6.x86_64
Version: #1 SMP Tue Aug 23 19:58:13 UTC 2016
Kernel Architecture: x86_64
Total Ram: 7856.3MB
Used Ram: 5268.2MB
Working in the current directory /home3/soroush/Desktop/validation/GOMC_Examples/NVT_GEMC/binary_mixture/xenon_and_ethane_T_210_02_K/x_0.500

------------------------------------------------------
This code was compiled to support the Gibbs ensemble.
------------------------------------------------------

REMINDER: EXOTIC force field has been selected!
NVT_GEMC simulation has been selected 
Temperature of system has been set to 210.02000 K 
Note: Pressure will be calculated every 1000 steps.
By default intra box swap frequency has been set to zero
Warning: Electrostatic energy would not be calculated!
Reading from Exotic Parameter File file: ./../../../../common/Par_Mie_Alkane_Vrabec01_Noble_Gases_Exotic.inp
Finished reading Exotic Parameter File file: ./../../../../common/Par_Mie_Alkane_Vrabec01_Noble_Gases_Exotic.inp
Reading from Box 1 PDB coordinate file file: ./STEP3_START_XE_C2P_sys_BOX_0.pdb
Finished reading Box 1 PDB coordinate file file: ./STEP3_START_XE_C2P_sys_BOX_0.pdb
Reading from Box 2 PDB coordinate file file: ./STEP3_START_XE_C2P_sys_BOX_1.pdb
Finished reading Box 2 PDB coordinate file file: ./STEP3_START_XE_C2P_sys_BOX_1.pdb
Random number seed: 4266114765

Molecules in PSF:
Molecule Kind: C2P
Idx	name	type	charge	mass
0	C1	CH3	0.0000	15.0350
1	C2	CH3	0.0000	15.0350
Bonds:
[0 1] 
Angles:
Dihedrals:

Molecule Kind: XE
Idx	name	type	charge	mass
0	XE	XE	0.0000	131.2930
Bonds:
Angles:
Dihedrals:

REMINDER! 1-3 and 1-4 Interaction is OFF
Minimum coordinates in box 0: x =    1.000, y =    1.041, z =    1.001
Maximum coordinates in box 0: x =   56.986, y =   57.000, z =   57.000
Minimum coordinates in box 1: x =    1.000, y =    1.062, z =    1.000
Maximum coordinates in box 1: x =   80.000, y =   80.000, z =   79.955

###############################################################################
########################## INITIAL SIMULATION ENERGY ##########################

ETITLE:     STEP           TOTAL        INTRA(B)       INTRA(NB)       INTER(LJ)             LRC     TOTAL_ELECT            REAL           RECIP            SELF            CORR

ENER_0:        0 2897322494.4761          0.0000          0.0000 2897365311.5879     -42817.1118          0.0000          0.0000          0.0000          0.0000         -0.0000

ENER_1:        0 8586888559.3163          0.0000          0.0000 8586903810.3814     -15251.0651          0.0000          0.0000          0.0000          0.0000         -0.0000

###############################################################################
############################# STARTING SIMULATION #############################

MTITLE:     STEP          DISTRY       DISACCEPT      DISACCEPT%          DISMAX          ROTATE       ROTACCEPT      ROTACCEPT%          ROTMAX       INTRASWAP       INTACCEPT      INTACCEPT%        TRANSFER      TRANACCEPT     TRANACCEPT%          VOLUME       VOLACCEPT      VOLACCEPT%          VOLMAX

ETITLE:     STEP           TOTAL        INTRA(B)       INTRA(NB)       INTER(LJ)             LRC     TOTAL_ELECT            REAL           RECIP            SELF            CORR

STITLE:     STEP          VOLUME        PRESSURE        TOTALMOL      MOLFRAC_XE     MOLFRAC_C2P     TOT_DENSITY

Printed combined psf to file xenon_ethane_NVT_210_02_K_merged.psf
MOVE_0:   100000           37074           18044         48.6702          0.4190            2516            1354         53.8156          1.4027               0               0          0.0000            9921             965          9.7268            1079             574         53.1974       1294.0735

ENER_0:   100000   -2239490.8416          0.0000          0.0000   -2095171.1958    -144319.6458          0.0000          0.0000          0.0000          0.0000          0.0000

STAT_0:   100000     179428.2792         -4.6556            1852          0.4838          0.5162       1354.7407

PRES_0:   100000          0.6702       -134.4381       -111.9977

MOVE_1:   100000           36767           21534         58.5688         39.3979            2558            2286         89.3667          3.1416               0               0          0.0000           10085            1817         18.0169            1079             574         53.1974       1294.0735

ENER_1:   100000      -6573.0737          0.0000          0.0000      -6252.4441       -320.6296          0.0000          0.0000          0.0000          0.0000          0.0000

STAT_1:   100000     489226.7208          8.1188             148          0.7027          0.2973         50.8370

PRES_1:   100000          0.4893         -0.9754         -0.9308

Steps/sec. : 3194.9398
MOVE_0:   200000           74117           36601         49.3827          0.4125            5037            2671         53.0276          2.3783               0               0          0.0000           19886            1245          6.2607            2136            1140         53.3708       1719.0699

ENER_0:   200000   -2382097.5326          0.0000          0.0000   -2230334.4510    -151763.0816          0.0000          0.0000          0.0000          0.0000          0.0000

STAT_0:   200000     175885.9019        -35.3450            1882          0.4910          0.5090       1417.3002

PRES_0:   200000       -117.8194        -56.3395       -148.1409

MOVE_1:   200000           73780           49039         66.4665         39.4928            5056            4677         92.5040          3.1416               0               0          0.0000           19988            2127         10.6414            2136            1140         53.3708       1719.0699

ENER_1:   200000      -4964.8683          0.0000          0.0000      -4759.7086       -205.1597          0.0000          0.0000          0.0000          0.0000          0.0000

STAT_1:   200000     492769.0981          6.2914             118          0.6441          0.3559         37.8808

PRES_1:   200000         -1.1900         -1.0415          0.6198

Steps/sec. : 2758.1192
MOVE_0:   300000          111092           55105         49.6030          0.3802            7571            3957         52.2652          1.0373               0               0          0.0000           29860            1472          4.9297            3123            1660         53.1540        931.5491

ENER_0:   300000   -2476950.2129          0.0000          0.0000   -2319959.4497    -156990.7632          0.0000          0.0000          0.0000          0.0000          0.0000

STAT_0:   300000     173726.2070        -10.5580            1902          0.4895          0.5105       1447.4406

PRES_0:   300000        -24.8292       -131.8392        -79.0533

MOVE_1:   300000          111010           77876         70.1522         39.5504            7625            7179         94.1508          3.1416               0               0          0.0000           29719            2374          7.9882            3123            1660         53.1540        931.5491

ENER_1:   300000      -4250.5782          0.0000          0.0000      -4111.6595       -138.9187          0.0000          0.0000          0.0000          0.0000          0.0000

STAT_1:   300000     494928.7930          5.5905              98          0.7041          0.2959         33.3204

PRES_1:   300000          0.8945         -0.3712         -0.7440

Steps/sec. : 2868.3938
MOVE_0:   400000          148344           73782         49.7371          0.3594           10026            5233         52.1943          0.9160               0               0          0.0000           39911            1732          4.3397            4114            2176         52.8926       1761.9945

ENER_0:   400000   -2482686.1514          0.0000          0.0000   -2325192.4413    -157493.7101          0.0000          0.0000          0.0000          0.0000          0.0000

STAT_0:   400000     173808.6597         39.7786            1906          0.4916          0.5084       1453.7055

PRES_0:   400000        -11.7996         12.1511        -84.5739

MOVE_1:   400000          147690          107253         72.6204         39.5482           10189            9657         94.7787          3.1416               0               0          0.0000           39726            2638          6.6405            4114            2176         52.8926       1761.9945

ENER_1:   400000      -3428.3272          0.0000          0.0000      -3299.4803       -128.8470          0.0000          0.0000          0.0000          0.0000          0.0000

STAT_1:   400000     494846.3403          4.3770              94          0.6702          0.3298         30.8843

PRES_1:   400000         -0.9190         -1.3230         -0.9357

Steps/sec. : 2811.8597
MOVE_0:   500000          185336           92323         49.8139          0.3911           12544            6529         52.0488          1.2203               0               0          0.0000           49940            1934          3.8726            5102            2700         52.9204        867.9277

ENER_0:   500000   -2510613.9194          0.0000          0.0000   -2352318.5054    -158295.4140          0.0000          0.0000          0.0000          0.0000          0.0000

STAT_0:   500000     170231.2861         44.6638            1891          0.4913          0.5087       1471.9559

PRES_0:   500000         69.2324        -79.4081        -52.1039

MOVE_1:   500000          184696          137042         74.1987         39.6433           12630           12016         95.1386          3.1416               0               0          0.0000           49752            2825          5.6782            5102            2700         52.9204        867.9277

ENER_1:   500000      -4140.1267          0.0000          0.0000      -3967.3547       -172.7720          0.0000          0.0000          0.0000          0.0000          0.0000

STAT_1:   500000     498423.7139          5.2497             109          0.6514          0.3486         34.8632

PRES_1:   500000         -0.9959         -1.4680         -0.5236

Steps/sec. : 2813.2153
MOVE_0:   600000          222121          110728         49.8503          0.3431           15025            7807         51.9601          1.5590               0               0          0.0000           60158            2115          3.5157            6114            3259         53.3039       1391.3254

ENER_0:   600000   -2587650.3451          0.0000          0.0000   -2425395.7874    -162254.5576          0.0000          0.0000          0.0000          0.0000          0.0000

STAT_0:   600000     169915.7724        -43.6949            1913          0.4924          0.5076       1494.0141

PRES_0:   600000       -129.0909        -16.6761       -173.9215

MOVE_1:   600000          221796          166933         75.2642         39.6516           15154           14462         95.4335          3.1416               0               0          0.0000           59632            3028          5.0778            6114            3259         53.3039       1391.3254

ENER_1:   600000      -1741.4618          0.0000          0.0000      -1631.8603       -109.6014          0.0000          0.0000          0.0000          0.0000          0.0000

STAT_1:   600000     498739.2276          4.4341              87          0.6667          0.3333         28.2573

PRES_1:   600000         -0.5965         -0.6181         -0.4757

Steps/sec. : 2759.4458
MOVE_0:   700000          259093          129240         49.8817          0.3241           17532            9097         51.8880          2.0159               0               0          0.0000           70212            2300          3.2758            7169            3805         53.0757       1113.6244

ENER_0:   700000   -2527841.8435          0.0000          0.0000   -2368976.6776    -158865.1659          0.0000          0.0000          0.0000          0.0000          0.0000

STAT_0:   700000     171024.3431        -54.4870            1900          0.4963          0.5037       1481.5173

PRES_0:   700000        -55.9173       -167.3410       -137.3864

MOVE_1:   700000          258780          197152         76.1852         39.6222           17632           16868         95.6670          3.1416               0               0          0.0000           69582            3200          4.5989            7169            3805         53.0757       1113.6244

ENER_1:   700000      -3333.7477          0.0000          0.0000      -3185.2238       -148.5239          0.0000          0.0000          0.0000          0.0000          0.0000

STAT_1:   700000     497630.6569          4.9192             100          0.5700          0.4300         29.2869

PRES_1:   700000         -0.7044         -1.1544         -0.6172

Steps/sec. : 2657.0297
MOVE_0:   800000          296188          147856         49.9196          0.3822           20048           10378         51.7658          0.7446               0               0          0.0000           80252            2481          3.0915            8173            4341         53.1139       1804.4223

ENER_0:   800000   -2570055.4988          0.0000          0.0000   -2408301.6250    -161753.8738          0.0000          0.0000          0.0000          0.0000          0.0000

STAT_0:   800000     170519.9156         10.6238            1914          0.4948          0.5052       1493.9423

PRES_0:   800000        -47.8168       -170.6977         59.5065

MOVE_1:   800000          295637          226688         76.6778         39.6356           20154           19305         95.7874          3.1416               0               0          0.0000           79548            3395          4.2679            8173            4341         53.1139       1804.4223

ENER_1:   800000      -2140.5330          0.0000          0.0000      -2032.0155       -108.5175          0.0000          0.0000          0.0000          0.0000          0.0000

STAT_1:   800000     498135.0844          4.3573              86          0.6163          0.3837         26.5042

PRES_1:   800000         -0.4700         -0.7485         -0.5475

Steps/sec. : 2771.0812
MOVE_0:   900000          333256          166428         49.9400          0.3722           22558           11697         51.8530          1.0887               0               0          0.0000           90338            2671          2.9567            9201            4907         53.3312       2145.3123

ENER_0:   900000   -2557139.1527          0.0000          0.0000   -2396863.4146    -160275.7381          0.0000          0.0000          0.0000          0.0000          0.0000

STAT_0:   900000     171340.4180        -94.5732            1909          0.4914          0.5086       1476.5021

PRES_0:   900000       -221.9352        -45.6876       -210.6646

MOVE_1:   900000          332617          256504         77.1169         39.6139           22669           21750         95.9460          3.1416               0               0          0.0000           89361            3580          4.0062            9201            4907         53.3312       2145.3123

ENER_1:   900000      -2931.7912          0.0000          0.0000      -2811.9494       -119.8418          0.0000          0.0000          0.0000          0.0000          0.0000

STAT_1:   900000     497314.5820          4.7139              91          0.6813          0.3187         30.0918

PRES_1:   900000         -0.1357         -0.9919         -0.4488

Steps/sec. : 2712.8533
MOVE_0:  1000000          369996          184836         49.9562          0.3703           25062           13002         51.8793          1.5755               0               0          0.0000          100437            2861          2.8486           10252            5463         53.2872       1106.7535

ENER_0:  1000000   -2566349.0810          0.0000          0.0000   -2404802.6219    -161546.4591          0.0000          0.0000          0.0000          0.0000          0.0000

STAT_0:  1000000     171620.3550        -21.5079            1919          0.4950          0.5050       1488.7560

PRES_0:  1000000       -157.4694       -100.6892          0.4440

MOVE_1:  1000000          369642          286340         77.4641         39.6064           25143           24155         96.0705          3.1416               0               0          0.0000           99468            3780          3.8002           10252            5463         53.2872       1106.7535

ENER_1:  1000000      -1758.6145          0.0000          0.0000      -1662.1586        -96.4559          0.0000          0.0000          0.0000          0.0000          0.0000

STAT_1:  1000000     497034.6450          4.0031              81          0.6173          0.3827         25.0461

PRES_1:  1000000         -0.8280         -0.7785         -0.3999

Simulation Time (total): 358.0906sec.
GOMC Serial Version 1.9
Completed at: Sat Apr 22 20:40:55 2017
On hostname: potoff39.eng.wayne.edu
