GOMC Serial Version 1.9
Started at: Fri Dec  9 12:49:43 2016
On hostname: potoff39.eng.wayne.edu

Total number of CPUs: 4
Total number of CPUs available: 4
Model name: Intel(R) Core(TM) i5-2500K CPU @ 3.30GHz

System name: Linux
Release: 2.6.32-642.4.2.el6.x86_64
Version: #1 SMP Tue Aug 23 19:58:13 UTC 2016
Kernel Architecture: x86_64
Total Ram: 7856.3MB
Used Ram: 5544.2MB
Working in the current directory /home3/soroush/Desktop/validation/GOMC_Serial-development_1.90/GOMC_Examples-master/NVT_GEMC/binary_mixture/xenon_and_ethane_T_210_02_K/x_0.500

------------------------------------------------------
This code was compiled to support the Gibbs ensemble.
------------------------------------------------------

REMINDER: EXOTIC force field has been selected!
NVT_GEMC simulation has been selected 
Temperature of system has been set to 210.0 K 
By default intra box swap frequency has been set to zero
Warning: Electrostatic energy would not be calculated!
Reading from Exotic Parameter File file: ./../../../../common/Par_Mie_Alkane_Vrabec01_Noble_Gases_Exotic.inp

Finished reading Exotic Parameter File file: ./../../../../common/Par_Mie_Alkane_Vrabec01_Noble_Gases_Exotic.inp

Reading from Box 1 PDB coordinate file file: ./STEP3_START_XE_C2P_sys_BOX_0.pdb

Finished reading Box 1 PDB coordinate file file: ./STEP3_START_XE_C2P_sys_BOX_0.pdb

Reading from Box 2 PDB coordinate file file: ./STEP3_START_XE_C2P_sys_BOX_1.pdb

Finished reading Box 2 PDB coordinate file file: ./STEP3_START_XE_C2P_sys_BOX_1.pdb

Random number seed: 1030501232

Molecules in PSF:

Molecule Kind: C2P
Idx	name	type	charge	mass
0	C1	CH3	0.0	15.0
1	C2	CH3	0.0	15.0

Bonds:
[0 1] 

Angles:

Dihedrals:

Molecule Kind: XE
Idx	name	type	charge	mass
0	XE	XE	0.0	131.3

Bonds:

Angles:

Dihedrals:

REMINDER! 1-3 and 1-4 Interaction is OFF


########################## INITIAL SIMULATION ENERGY ##########################
ETITLE_BOX_0    TOTAL           INTRA(B)        INTRA(N)        INTER(LJ)       LRC             TOTAL_ELECT     REAL            RECIP           SELF            CORR            

ENERGY_BOX_0    16782113788585.56450.0000          0.0000          16782113833780.8750-45195.3112     0.0000          0.0000          0.0000          0.0000          -0.0000         

ETITLE_BOX_1    TOTAL           INTRA(B)        INTRA(N)        INTER(LJ)       LRC             TOTAL_ELECT     REAL            RECIP           SELF            CORR            

ENERGY_BOX_1    821217261553.99610.0000          0.0000          821217277399.1930-15845.1970     0.0000          0.0000          0.0000          0.0000          -0.0000         

###############################################################################

############################# STARTING SIMULATION #############################
MTITLE_BOX_0    DISTRY          DISACCEPT       DISACCEPT%      DISMAX          ROTATE          ROTACCEPT       ROTACCEPT%      ROTMAX          INTRASWAP       INTACCEPT       INTACCEPT%      TRANSFER        TRANACCEPT      TRANACCEPT%     VOLUME          VOLACCEPT       VOLACCEPT%      VOLMAX          STEP            

ETITLE_BOX_0    TOTAL           INTRA(B)        INTRA(N)        INTER(LJ)       LRC             TOTAL_ELECT     REAL            RECIP           SELF            CORR            
STITLE_BOX_0    VOLUME          PRESSURE        TOTALMOL        MOLFRAC_XE      MOLFRAC_C2P     TOT_DENSITY     

MTITLE_BOX_1    DISTRY          DISACCEPT       DISACCEPT%      DISMAX          ROTATE          ROTACCEPT       ROTACCEPT%      ROTMAX          INTRASWAP       INTACCEPT       INTACCEPT%      TRANSFER        TRANACCEPT      TRANACCEPT%     VOLUME          VOLACCEPT       VOLACCEPT%      VOLMAX          STEP            

ETITLE_BOX_1    TOTAL           INTRA(B)        INTRA(N)        INTER(LJ)       LRC             TOTAL_ELECT     REAL            RECIP           SELF            CORR            
STITLE_BOX_1    VOLUME          PRESSURE        TOTALMOL        MOLFRAC_XE      MOLFRAC_C2P     TOT_DENSITY     

Printed combined psf to file xenon_ethane_NVT_210_02_K.psf
MOVE_BOX_0      36874           17958           48.7010         0.3961          2463            1311            53.2278         1.2365          0               0               0.0000          10224           1012            9.8983          988             534             54.0486         1369.0292       100000          

ENERGY_BOX_0    -2215485.5629   0.0000          0.0000          -2072406.8660   -143078.6969    0.0000          0.0000          0.0000          0.0000          0.0000          

STAT_BOX_0      177526.7413     22.0122         1835            0.4872          0.5128          1362.5765       

MOVE_BOX_1      36845           21346           57.9346         38.6921         2562            2318            90.4762         3.1416          0               0               0.0000          10044           1847            18.3891         0               0               0.0000          500.0000        100000          

ENERGY_BOX_1    -9396.5583      0.0000          0.0000          -8969.8288      -426.7294       0.0000          0.0000          0.0000          0.0000          0.0000          

STAT_BOX_1      463400.2587     7.2028          165             0.6424          0.3576          56.2275         

Steps/sec. : 4141.8590
MOVE_BOX_0      73942           36521           49.3914         0.4055          5086            2661            52.3201         1.4677          0               0               0.0000          20218           1270            6.2815          2021            1070            52.9441         1449.8675       200000          

ENERGY_BOX_0    -2367026.7321   0.0000          0.0000          -2216359.3771   -150667.3550    0.0000          0.0000          0.0000          0.0000          0.0000          

STAT_BOX_0      176800.6549     -25.6162        1879            0.4864          0.5136          1399.6130       

MOVE_BOX_1      73686           47675           64.7002         38.7123         5090            4706            92.4558         3.1416          0               0               0.0000          19957           2149            10.7682         0               0               0.0000          500.0000        200000          

ENERGY_BOX_1    -5730.3496      0.0000          0.0000          -5504.8662      -225.4834       0.0000          0.0000          0.0000          0.0000          0.0000          

STAT_BOX_1      464126.3451     6.1824          121             0.7107          0.2893          44.1628         

Steps/sec. : 3244.7452
MOVE_BOX_0      110848          55008           49.6247         0.3995          7590            3942            51.9368         1.8489          0               0               0.0000          30088           1510            5.0186          3038            1631            53.6866         1848.8583       300000          

ENERGY_BOX_0    -2473978.7216   0.0000          0.0000          -2317967.6518   -156011.0699    0.0000          0.0000          0.0000          0.0000          0.0000          

STAT_BOX_0      173843.3069     -8.7913         1897            0.4908          0.5092          1445.0295       

MOVE_BOX_1      110967          76127           68.6033         38.7943         7537            7033            93.3130         3.1416          0               0               0.0000          29932           2407            8.0416          0               0               0.0000          500.0000        300000          

ENERGY_BOX_1    -3681.3775      0.0000          0.0000          -3517.4695      -163.9080       0.0000          0.0000          0.0000          0.0000          0.0000          

STAT_BOX_1      467083.6931     5.9614          103             0.6699          0.3301          35.8413         

Steps/sec. : 3161.8065
MOVE_BOX_0      147876          73541           49.7315         0.3676          10074           5214            51.7570         1.5407          0               0               0.0000          40212           1723            4.2848          4021            2160            53.7180         377.6593        400000          

ENERGY_BOX_0    -2522513.0971   0.0000          0.0000          -2363086.9074   -159426.1896    0.0000          0.0000          0.0000          0.0000          0.0000          

STAT_BOX_0      174072.6929     -13.3411        1920            0.4953          0.5047          1469.0349       

MOVE_BOX_1      147851          105714          71.5004         38.7880         10001           9414            94.1306         3.1416          0               0               0.0000          39965           2643            6.6133          0               0               0.0000          500.0000        400000          

ENERGY_BOX_1    -2844.5923      0.0000          0.0000          -2744.3059      -100.2864       0.0000          0.0000          0.0000          0.0000          0.0000          

STAT_BOX_1      466854.3071     3.9794          80              0.6125          0.3875          26.1982         

Steps/sec. : 3250.6612
MOVE_BOX_0      185002          92166           49.8189         0.4002          12591           6511            51.7115         1.9417          0               0               0.0000          50186           1922            3.8298          5041            2713            53.8187         1499.1257       500000          

ENERGY_BOX_0    -2531172.3186   0.0000          0.0000          -2372138.2828   -159034.0358    0.0000          0.0000          0.0000          0.0000          0.0000          

STAT_BOX_0      171809.5468     -74.7115        1904            0.4905          0.5095          1467.1041       

MOVE_BOX_1      184943          135150          73.0766         38.8506         12462           11790           94.6076         3.1416          0               0               0.0000          49775           2826            5.6775          0               0               0.0000          500.0000        500000          

ENERGY_BOX_1    -4010.1741      0.0000          0.0000          -3868.9888      -141.1854       0.0000          0.0000          0.0000          0.0000          0.0000          

STAT_BOX_1      469117.4532     6.1899          96              0.6875          0.3125          33.8659         

Steps/sec. : 3180.2900
MOVE_BOX_0      222045          110711          49.8597         0.3705          15080           7797            51.7042         1.1517          0               0               0.0000          60179           2095            3.4813          6030            3227            53.5158         601.4665        600000          

ENERGY_BOX_0    -2551170.0047   0.0000          0.0000          -2390394.7307   -160775.2739    0.0000          0.0000          0.0000          0.0000          0.0000          

STAT_BOX_0      170406.1901     -6.6675         1907            0.4924          0.5076          1484.9972       

MOVE_BOX_1      222045          164252          73.9724         38.8893         14930           14153           94.7957         3.1416          0               0               0.0000          59691           3002            5.0292          0               0               0.0000          500.0000        600000          

ENERGY_BOX_1    -2910.6262      0.0000          0.0000          -2777.5379      -133.0883       0.0000          0.0000          0.0000          0.0000          0.0000          

STAT_BOX_1      470520.8099     5.1319          93              0.6559          0.3441          31.6604         

Steps/sec. : 3315.6158
MOVE_BOX_0      259071          129284          49.9029         0.4042          17552           9073            51.6921         1.0904          0               0               0.0000          70220           2263            3.2227          7038            3784            53.7653         1807.0749       700000          

ENERGY_BOX_0    -2518284.5122   0.0000          0.0000          -2360317.5063   -157967.0058    0.0000          0.0000          0.0000          0.0000          0.0000          

STAT_BOX_0      170799.2083     -111.5104       1892            0.4905          0.5095          1466.3698       

MOVE_BOX_1      259161          192897          74.4313         38.8784         17452           16566           94.9232         3.1416          0               0               0.0000          69506           3155            4.5392          0               0               0.0000          500.0000        700000          

ENERGY_BOX_1    -4473.1224      0.0000          0.0000          -4293.9451      -179.1772       0.0000          0.0000          0.0000          0.0000          0.0000          

STAT_BOX_1      470127.7917     5.1788          108             0.6667          0.3333          37.2129         

Steps/sec. : 3293.4550
MOVE_BOX_0      296309          147926          49.9229         0.3798          20001           10356           51.7774         1.2770          0               0               0.0000          80121           2423            3.0242          7992            4313            53.9665         962.0452        800000          

ENERGY_BOX_0    -2557614.5759   0.0000          0.0000          -2396543.7540   -161070.8220    0.0000          0.0000          0.0000          0.0000          0.0000          

STAT_BOX_0      169070.1922     16.4504         1901            0.4913          0.5087          1489.9888       

MOVE_BOX_1      296179          222157          75.0077         38.9260         19851           18873           95.0733         3.1416          0               0               0.0000          79547           3324            4.1787          0               0               0.0000          500.0000        800000          

ENERGY_BOX_1    -5218.3768      0.0000          0.0000          -5068.3698      -150.0070       0.0000          0.0000          0.0000          0.0000          0.0000          

STAT_BOX_1      471856.8078     5.2992          99              0.6667          0.3333          33.9868         

Steps/sec. : 3420.5180
MOVE_BOX_0      333285          166450          49.9422         0.3734          22474           11638           51.7843         1.2633          0               0               0.0000          90233           2561            2.8382          8983            4853            54.0243         1333.1402       900000          

ENERGY_BOX_0    -2555158.1723   0.0000          0.0000          -2394283.1404   -160875.0319    0.0000          0.0000          0.0000          0.0000          0.0000          

STAT_BOX_0      168398.6977     6.3373          1896            0.4910          0.5090          1491.4532       

MOVE_BOX_1      333085          251348          75.4606         38.9445         22397           21328           95.2270         3.1416          0               0               0.0000          89543           3457            3.8607          0               0               0.0000          500.0000        900000          

ENERGY_BOX_1    -4245.9906      0.0000          0.0000          -4080.5592      -165.4314       0.0000          0.0000          0.0000          0.0000          0.0000          

STAT_BOX_1      472528.3023     6.3006          104             0.6635          0.3365          35.5340         

Steps/sec. : 3313.5495
MOVE_BOX_0      370288          184988          49.9579         0.3620          24968           12924           51.7623         1.6678          0               0               0.0000          100161          2722            2.7176          9987            5385            53.9201         490.5425        1000000         

ENERGY_BOX_0    -2543902.6694   0.0000          0.0000          -2383175.1537   -160727.5157    0.0000          0.0000          0.0000          0.0000          0.0000          

STAT_BOX_0      168454.2865     62.2273         1897            0.4976          0.5024          1504.2289       

MOVE_BOX_1      370220          280517          75.7704         38.9430         24884           23726           95.3464         3.1416          0               0               0.0000          99492           3619            3.6375          0               0               0.0000          500.0000        1000000         

ENERGY_BOX_1    -3290.6157      0.0000          0.0000          -3123.5862      -167.0295       0.0000          0.0000          0.0000          0.0000          0.0000          

STAT_BOX_1      472472.7135     5.9410          103             0.5437          0.4563          30.8077         

Simulation Time (total): 299.2022sec.
GOMC Serial Version 1.9
Completed at: Fri Dec  9 12:54:42 2016
On hostname: potoff39.eng.wayne.edu
