GOMC Serial Version 1.9
Started at: Sat Apr 22 19:55:25 2017
On hostname: potoff13.eng.wayne.edu

Total number of CPUs: 32
Total number of CPUs available: 32
Model name: Intel(R) Xeon(R) CPU E5-2640 v3 @ 2.60GHz

System name: Linux
Release: 3.10.0-327.4.5.el7.x86_64
Version: #1 SMP Mon Jan 25 13:30:47 CST 2016
Kernel Architecture: x86_64
Total Ram: 31904.2MB
Used Ram: 28058.8MB
Working in the current directory /home3/soroush/Desktop/validation/GOMC_Examples/NPT/water_700_00_K

------------------------------------------------------
This code was compiled to support the isobaric-isothermal ensemble.
------------------------------------------------------

Number of threads has been set to: 8
REMINDER: CHARMM force field has been selected!
Pressure of system has been set to 70.15800 bar 
Temperature of system has been set to 580.00000 K 
Ewald Summation method will be used to calculate electrostatic interactions.
Warning: Pressure calculation is turned off.
Warning: 1-4 electro static scaling has been set to zero!
Warning: By default, Fourier terms of ewald method will be cached!
Warning: Pressure calculation has been turn off, pressure output for block average will be ignored!
Warning: Pressure calculation has been turn off, pressure fluctuation output will be ignored!
Reading from CHARMM-Style Parameter File file: ././../../common/Par_SPCE_Charmm.inp
Finished reading CHARMM-Style Parameter File file: ././../../common/Par_SPCE_Charmm.inp
Reading from system PDB coordinate file file: ./STEP3_START_SPCE_BOX_0.pdb
Finished reading system PDB coordinate file file: ./STEP3_START_SPCE_BOX_0.pdb
Random number seed: 2220525722

Molecules in PSF:
Molecule Kind: SPC
Idx	name	type	charge	mass
0	H1	HT	0.4238	1.0080
1	OH2	OT	-0.8476	15.9994
2	H2	HT	0.4238	1.0080
Bonds:
[0 1] [1 2] 
Angles:
[0 1 2] 
Dihedrals:

REMINDER! 1-3 and 1-4 Interaction is OFF
Minimum coordinates in box 0: x =    0.004, y =    0.033, z =    0.014
Maximum coordinates in box 0: x =   22.841, y =   22.854, z =   22.837
Box 0, RecipVectors:   1258, kmax: 9, alpha: 0.3393076

###############################################################################
########################## INITIAL SIMULATION ENERGY ##########################

ETITLE:     STEP           TOTAL        INTRA(B)       INTRA(NB)       INTER(LJ)             LRC     TOTAL_ELECT            REAL           RECIP            SELF            CORR

ENER_0:        0    -864005.1556         59.3433          0.0000     129100.0016      -3460.1149    -989704.3856    -867847.9059      35596.3688   -8612863.1176    8455410.2692

###############################################################################
############################# STARTING SIMULATION #############################

MTITLE:     STEP          DISTRY       DISACCEPT      DISACCEPT%          DISMAX          ROTATE       ROTACCEPT      ROTACCEPT%          ROTMAX       INTRASWAP       INTACCEPT      INTACCEPT%          VOLUME       VOLACCEPT      VOLACCEPT%          VOLMAX

ETITLE:     STEP           TOTAL        INTRA(B)       INTRA(NB)       INTER(LJ)             LRC     TOTAL_ELECT            REAL           RECIP            SELF            CORR

STITLE:     STEP        TOTALMOL     TOT_DENSITY

Printed combined psf to file SPCE_580_00_K_merged.psf
MOVE_0:   100000           59962           30575         50.9906          0.3507           38073           19091         50.1431          0.8101               0               0          0.0000            1965            1020         51.9084        286.0080

ENER_0:   100000    -874507.6455         59.3433          0.0000     142368.9767      -3643.7475   -1013292.2181    -885204.9236      29365.5539   -8612863.1176    8455410.2692

STAT_0:   100000             250        659.7876

Steps/sec. : 2376.2523
MOVE_0:   200000          120053           60640         50.5110          0.3230           75974           38065         50.1027          0.7565               0               0          0.0000            3973            2063         51.9255        487.6330

ENER_0:   200000    -864101.5419         59.3433          0.0000     144802.5757      -3392.2493   -1005571.2116    -884269.4592      36151.0960   -8612863.1176    8455410.2692

STAT_0:   200000             250        614.2478

Steps/sec. : 2658.1398
MOVE_0:   300000          179999           90657         50.3653          0.3243          114024           57136         50.1087          0.7910               0               0          0.0000            5977            3105         51.9491        418.6495

ENER_0:   300000    -846039.1976         59.3433          0.0000     122752.1977      -3320.6214    -965530.1172    -842244.8620      34167.5932   -8612863.1176    8455410.2692

STAT_0:   300000             250        601.2779

Steps/sec. : 2450.0253
MOVE_0:   400000          239998          120688         50.2871          0.3173          152074           76161         50.0815          0.7116               0               0          0.0000            7928            4121         51.9803        464.6607

ENER_0:   400000    -864665.6768         59.3433          0.0000     140738.2409      -3252.8733   -1002210.3878    -882318.8658      37561.3265   -8612863.1176    8455410.2692

STAT_0:   400000             250        589.0105

Steps/sec. : 2506.4794
MOVE_0:   500000          299974          150738         50.2504          0.3458          190067           95204         50.0897          0.7526               0               0          0.0000            9959            5184         52.0534        472.5007

ENER_0:   500000    -870844.4412         59.3433          0.0000     116693.1706      -3520.4592    -984076.4960    -861269.2424      34645.5950   -8612863.1176    8455410.2692

STAT_0:   500000             250        637.4633

Steps/sec. : 2313.7247
MOVE_0:   600000          359761          180677         50.2214          0.3220          228277          114367         50.1001          0.8599               0               0          0.0000           11962            6223         52.0231        485.5309

ENER_0:   600000    -857874.1424         59.3433          0.0000     112055.6927      -3442.0413    -966547.1372    -844715.7165      35621.4278   -8612863.1176    8455410.2692

STAT_0:   600000             250        623.2639

Steps/sec. : 2447.7014
MOVE_0:   700000          419731          210702         50.1993          0.3184          266267          133359         50.0847          0.7309               0               0          0.0000           14002            7277         51.9711        387.0381

ENER_0:   700000    -878041.6904         59.3433          0.0000     127551.5996      -3595.1757   -1002057.4576    -877793.3442      33188.7351   -8612863.1176    8455410.2692

STAT_0:   700000             250        650.9925

Steps/sec. : 2660.3714
MOVE_0:   800000          480041          240919         50.1872          0.3323          303953          152261         50.0936          0.8236               0               0          0.0000           16006            8324         52.0055        624.4477

ENER_0:   800000    -844629.9861         59.3433          0.0000     107966.2163      -3282.6200    -949372.9257    -827719.9283      35799.8511   -8612863.1176    8455410.2692

STAT_0:   800000             250        594.3968

Steps/sec. : 2456.0983
MOVE_0:   900000          539987          270978         50.1823          0.3606          342016          171313         50.0892          0.7860               0               0          0.0000           17997            9350         51.9531        337.2983

ENER_0:   900000    -864291.3020         59.3433          0.0000     109315.1855      -3435.2864    -970230.5445    -843657.0252      30879.3292   -8612863.1176    8455410.2692

STAT_0:   900000             250        622.0407

Steps/sec. : 2468.2441
MOVE_0:  1000000          599954          300975         50.1663          0.3312          380018          190355         50.0910          0.7586               0               0          0.0000           20028           10407         51.9623        481.7991

ENER_0:  1000000    -893324.4500         59.3433          0.0000     112821.3225      -3658.1266   -1002546.9893    -875675.8571      30581.7164   -8612863.1176    8455410.2692

STAT_0:  1000000             250        662.3913

Simulation Time (total): 403.6081sec.
GOMC Serial Version 1.9
Completed at: Sat Apr 22 20:02:09 2017
On hostname: potoff13.eng.wayne.edu
