GOMC Serial Version 1.9
Started at: Fri Dec  9 11:19:16 2016
On hostname: potoff39.eng.wayne.edu

Total number of CPUs: 4
Total number of CPUs available: 4
Model name: Intel(R) Core(TM) i5-2500K CPU @ 3.30GHz

System name: Linux
Release: 2.6.32-642.4.2.el6.x86_64
Version: #1 SMP Tue Aug 23 19:58:13 UTC 2016
Kernel Architecture: x86_64
Total Ram: 7856.3MB
Used Ram: 5604.1MB
Working in the current directory /home3/soroush/Desktop/validation/GOMC_Serial-development_1.90/GOMC_Examples-master/NVT/isobutane_T_300_00_K

------------------------------------------------------
This code was compiled to support the canonical (NVT) ensemble.
------------------------------------------------------

REMINDER: CHARMM force field has been selected!
Temperature of system has been set to 300.0 K 
Warning: Unknown input HistogramFreq!
Warning: Electrostatic energy would not be calculated!
Reading from CHARMM-Style Parameter File file: ./../../common/Par_TraPPE_Alkanes_CHARMM.inp

Finished reading CHARMM-Style Parameter File file: ./../../common/Par_TraPPE_Alkanes_CHARMM.inp

Reading from system PDB coordinate file file: ./STEP3_START_ISB_sys_BOX_0.pdb

Finished reading system PDB coordinate file file: ./STEP3_START_ISB_sys_BOX_0.pdb

Random number seed: 150

Molecules in PSF:

Molecule Kind: ISB
Idx	name	type	charge	mass
0	C1	CH1	0.0	13.0
1	C2	CH3	0.0	15.0
2	C3	CH3	0.0	15.0
3	C4	CH3	0.0	15.0

Bonds:
[0 1] [0 2] [0 3] 

Angles:
[1 0 3] [1 0 2] [2 0 3] 

Dihedrals:

REMINDER! 1-3 and 1-4 Interaction is OFF


########################## INITIAL SIMULATION ENERGY ##########################
ETITLE_BOX_0    TOTAL           INTRA(B)        INTRA(N)        INTER(LJ)       LRC             TOTAL_ELECT     REAL            RECIP           SELF            CORR            

ENERGY_BOX_0    873194.9641     182733.4580     0.0000          693469.8279     -3008.3218      0.0000          0.0000          0.0000          0.0000          -0.0000         

###############################################################################

############################# STARTING SIMULATION #############################
MTITLE_BOX_0    DISTRY          DISACCEPT       DISACCEPT%      DISMAX          ROTATE          ROTACCEPT       ROTACCEPT%      ROTMAX          INTRASWAP       INTACCEPT       INTACCEPT%      STEP            

ETITLE_BOX_0    TOTAL           INTRA(B)        INTRA(N)        INTER(LJ)       LRC             TOTAL_ELECT     REAL            RECIP           SELF            CORR            
STITLE_BOX_0    PRESSURE        TOTALMOL        TOT_DENSITY     

Printed combined psf to file isobutane_300_00_K.psf
MOVE_BOX_0      49816           39477           79.2456         107.8775        30403           29192           96.0168         3.1416          19781           12370           62.5348         100000          

ENERGY_BOX_0    400123.8090     451832.5777     0.0000          -48700.4469     -3008.3218      0.0000          0.0000          0.0000          0.0000          0.0000          

STAT_BOX_0      3.7996          1000            9.6100          

Steps/sec. : 64234.4888
MOVE_BOX_0      99723           78943           79.1623         107.8775        60462           58125           96.1348         3.1416          39815           24993           62.7728         200000          

ENERGY_BOX_0    407470.3976     458848.1628     0.0000          -48369.4434     -3008.3218      0.0000          0.0000          0.0000          0.0000          0.0000          

STAT_BOX_0      3.8603          1000            9.6100          

Steps/sec. : 69584.5371
MOVE_BOX_0      149924          118643          79.1354         107.8775        90227           86695           96.0854         3.1416          59849           37567           62.7696         300000          

ENERGY_BOX_0    409164.0730     456440.7367     0.0000          -44268.3419     -3008.3218      0.0000          0.0000          0.0000          0.0000          0.0000          

STAT_BOX_0      3.5851          1000            9.6100          

Steps/sec. : 69145.9137
MOVE_BOX_0      200100          158504          79.2124         107.8775        120015          115330          96.0963         3.1416          79885           50002           62.5925         400000          

ENERGY_BOX_0    403886.7288     455631.9207     0.0000          -48736.8701     -3008.3218      0.0000          0.0000          0.0000          0.0000          0.0000          

STAT_BOX_0      3.9667          1000            9.6100          

Steps/sec. : 69642.4913
MOVE_BOX_0      250330          197915          79.0616         107.8775        150075          144239          96.1113         3.1416          99595           62412           62.6658         500000          

ENERGY_BOX_0    392874.2702     446950.8751     0.0000          -51068.2830     -3008.3218      0.0000          0.0000          0.0000          0.0000          0.0000          

STAT_BOX_0      3.8466          1000            9.6100          

Steps/sec. : 69971.6097
MOVE_BOX_0      300666          237805          79.0927         107.8775        179864          172869          96.1110         3.1416          119470          74766           62.5814         600000          

ENERGY_BOX_0    392682.9460     443847.7022     0.0000          -48156.4343     -3008.3218      0.0000          0.0000          0.0000          0.0000          0.0000          

STAT_BOX_0      3.6865          1000            9.6100          

Steps/sec. : 67022.9138
MOVE_BOX_0      350550          277133          79.0566         107.8775        210052          201849          96.0948         3.1416          139398          87278           62.6107         700000          

ENERGY_BOX_0    400771.3585     456222.4238     0.0000          -52442.7435     -3008.3218      0.0000          0.0000          0.0000          0.0000          0.0000          

STAT_BOX_0      3.6004          1000            9.6100          

Steps/sec. : 69628.2826
MOVE_BOX_0      400492          316725          79.0840         107.8775        239825          230504          96.1134         3.1416          159683          100081          62.6748         800000          

ENERGY_BOX_0    409775.3686     462422.3677     0.0000          -49638.6773     -3008.3218      0.0000          0.0000          0.0000          0.0000          0.0000          

STAT_BOX_0      3.9095          1000            9.6100          

Steps/sec. : 68908.3533
MOVE_BOX_0      450176          356226          79.1304         107.8775        270140          259676          96.1265         3.1416          179684          112663          62.7006         900000          

ENERGY_BOX_0    416079.3673     469720.0156     0.0000          -50632.3265     -3008.3218      0.0000          0.0000          0.0000          0.0000          0.0000          

STAT_BOX_0      3.7407          1000            9.6100          

Steps/sec. : 69539.1401
MOVE_BOX_0      499825          395180          79.0637         107.8775        300252          288550          96.1026         3.1416          199923          125350          62.6991         1000000         

ENERGY_BOX_0    424916.8909     472387.9155     0.0000          -44462.7027     -3008.3218      0.0000          0.0000          0.0000          0.0000          0.0000          

STAT_BOX_0      3.7018          1000            9.6100          

Simulation Time (total): 14.8507sec.
GOMC Serial Version 1.9
Completed at: Fri Dec  9 11:19:31 2016
On hostname: potoff39.eng.wayne.edu
