GOMC Serial Version 1.9
Started at: Sat Apr 22 20:05:05 2017
On hostname: potoff39.eng.wayne.edu

Total number of CPUs: 4
Total number of CPUs available: 4
Model name: Intel(R) Core(TM) i5-2500K CPU @ 3.30GHz

System name: Linux
Release: 2.6.32-642.4.2.el6.x86_64
Version: #1 SMP Tue Aug 23 19:58:13 UTC 2016
Kernel Architecture: x86_64
Total Ram: 7856.3MB
Used Ram: 5359.2MB
Working in the current directory /home3/soroush/Desktop/validation/GOMC_Examples/NVT_GEMC/pure_fluid/argon_T_115_00_K

------------------------------------------------------
This code was compiled to support the Gibbs ensemble.
------------------------------------------------------

REMINDER: EXOTIC force field has been selected!
NVT_GEMC simulation has been selected 
Temperature of system has been set to 115.00000 K 
Note: Pressure will be calculated every 1000 steps.
Warning: Unknown input FluctuationFreq!
By default intra box swap frequency has been set to zero
Warning: Electrostatic energy would not be calculated!
Reading from Exotic Parameter File file: ./../../../common/Par_Vrabec01_Noble_Gases_Exotic.inp
Finished reading Exotic Parameter File file: ./../../../common/Par_Vrabec01_Noble_Gases_Exotic.inp
Reading from Box 1 PDB coordinate file file: ./STEP3_START_AR_sys_BOX_0.pdb
Finished reading Box 1 PDB coordinate file file: ./STEP3_START_AR_sys_BOX_0.pdb
Reading from Box 2 PDB coordinate file file: ./STEP3_START_AR_sys_BOX_1.pdb
Finished reading Box 2 PDB coordinate file file: ./STEP3_START_AR_sys_BOX_1.pdb
Random number seed: 183427268

Molecules in PSF:
Molecule Kind: AR
Idx	name	type	charge	mass
0	AR	AR	0.0000	39.9480
Bonds:
Angles:
Dihedrals:

REMINDER! 1-3 and 1-4 Interaction is OFF
Minimum coordinates in box 0: x =    0.000, y =    0.000, z =    0.000
Maximum coordinates in box 0: x =   37.000, y =   37.000, z =   37.000
Minimum coordinates in box 1: x =    0.013, y =    0.090, z =    0.035
Maximum coordinates in box 1: x =   83.969, y =   83.978, z =   83.984

###############################################################################
########################## INITIAL SIMULATION ENERGY ##########################

ETITLE:     STEP           TOTAL        INTRA(B)       INTRA(NB)       INTER(LJ)             LRC     TOTAL_ELECT            REAL           RECIP            SELF            CORR

ENER_0:        0   14312409.0872          0.0000          0.0000   14338253.2067     -25844.1194          0.0000          0.0000          0.0000          0.0000         -0.0000

ENER_1:        0     894319.3949          0.0000          0.0000     896649.9654      -2330.5705          0.0000          0.0000          0.0000          0.0000         -0.0000

###############################################################################
############################# STARTING SIMULATION #############################

MTITLE:     STEP          DISTRY       DISACCEPT      DISACCEPT%          DISMAX          ROTATE       ROTACCEPT      ROTACCEPT%          ROTMAX       INTRASWAP       INTACCEPT      INTACCEPT%        TRANSFER      TRANACCEPT     TRANACCEPT%          VOLUME       VOLACCEPT      VOLACCEPT%          VOLMAX

ETITLE:     STEP           TOTAL        INTRA(B)       INTRA(NB)       INTER(LJ)             LRC     TOTAL_ELECT            REAL           RECIP            SELF            CORR

STITLE:     STEP          VOLUME        PRESSURE        TOTALMOL     TOT_DENSITY

Printed combined psf to file argon_115_00_K_merged.psf
MOVE_0:   100000           39348           19219         48.8437          0.4385               0               0          0.0000          0.7854               0               0          0.0000           10102            1308         12.9479             992             522         52.6210       1593.6887

ENER_0:   100000    -715761.6155          0.0000          0.0000    -681942.4635     -33819.1520          0.0000          0.0000          0.0000          0.0000          0.0000

STAT_0:   100000      72682.5540         -6.1828            1281       1169.1309

PRES_0:   100000       -183.5985       -155.1999       -133.9992

MOVE_1:   100000           39541           22063         55.7978         42.8180               0               0          0.0000          0.7854               0               0          0.0000           10017            1589         15.8630             992             522         52.6210       1593.6887

ENER_1:   100000     -31888.2187          0.0000          0.0000     -30655.1613      -1233.0574          0.0000          0.0000          0.0000          0.0000          0.0000

STAT_1:   100000     628013.6960         12.7574             719         75.9458

PRES_1:   100000         -5.5190         -3.9900         -5.1264

Steps/sec. : 5810.6718
MOVE_0:   200000           78952           39045         49.4541          0.4105               0               0          0.0000          0.7854               0               0          0.0000           20125            1681          8.3528            2014            1068         53.0288        954.2395

ENER_0:   200000    -794732.3625          0.0000          0.0000    -757336.5977     -37395.7648          0.0000          0.0000          0.0000          0.0000          0.0000

STAT_0:   200000      71710.7791         74.3324            1338       1237.7014

PRES_0:   200000        -43.4121       -162.9120        -27.6493

MOVE_1:   200000           79104           45379         57.3663         42.8401               0               0          0.0000          0.7854               0               0          0.0000           19805            2019         10.1944            2014            1068         53.0288        954.2395

ENER_1:   200000     -28419.1475          0.0000          0.0000     -27375.4612      -1043.6863          0.0000          0.0000          0.0000          0.0000          0.0000

STAT_1:   200000     628985.4709         13.0901             662         69.8171

PRES_1:   200000         -2.5278         -2.4434         -4.5172

Steps/sec. : 4213.4832
MOVE_0:   300000          118465           58830         49.6602          0.3834               0               0          0.0000          0.7854               0               0          0.0000           30058            1960          6.5207            3005            1601         53.2779        975.5239

ENER_0:   300000    -813571.7703          0.0000          0.0000    -775527.9622     -38043.8081          0.0000          0.0000          0.0000          0.0000          0.0000

STAT_0:   300000      73147.9845          6.6703            1363       1236.0547

PRES_0:   300000       -130.0541        -93.5963       -213.2749

MOVE_1:   300000          118672           69089         58.2185         42.8074               0               0          0.0000          0.7854               0               0          0.0000           29800            2323          7.7953            3005            1601         53.2779        975.5239

ENER_1:   300000     -27022.6785          0.0000          0.0000     -26054.1189       -968.5596          0.0000          0.0000          0.0000          0.0000          0.0000

STAT_1:   300000     627548.2655         12.9989             637         67.3343

PRES_1:   300000         -2.6071         -3.9940         -1.4741

Steps/sec. : 3623.7946
MOVE_0:   400000          158178           78730         49.7730          0.3771               0               0          0.0000          0.7854               0               0          0.0000           40042            2253          5.6266            3957            2105         53.1969       1109.6148

ENER_0:   400000    -818575.6660          0.0000          0.0000    -780023.9720     -38551.6941          0.0000          0.0000          0.0000          0.0000          0.0000

STAT_0:   400000      74425.7719         45.7169            1384       1233.5505

PRES_0:   400000        -57.5448        -53.7170       -208.4685

MOVE_1:   400000          157972           92923         58.8224         42.7783               0               0          0.0000          0.7854               0               0          0.0000           39851            2637          6.6171            3957            2105         53.1969       1109.6148

ENER_1:   400000     -26135.3428          0.0000          0.0000     -25227.7435       -907.5992          0.0000          0.0000          0.0000          0.0000          0.0000

STAT_1:   400000     626270.4781         12.6158             616         65.2474

PRES_1:   400000         -2.6473         -2.7361         -2.4205

Steps/sec. : 3840.2655
MOVE_0:   500000          197743           98575         49.8501          0.4235               0               0          0.0000          0.7854               0               0          0.0000           50019            2536          5.0701            4982            2648         53.1513        790.2198

ENER_0:   500000    -823833.0061          0.0000          0.0000    -785341.5118     -38491.4943          0.0000          0.0000          0.0000          0.0000          0.0000

STAT_0:   500000      75840.4148        -40.4857            1396       1221.0372

PRES_0:   500000       -219.9967        -48.7696       -309.2438

MOVE_1:   500000          197604          117311         59.3667         42.7461               0               0          0.0000          0.7854               0               0          0.0000           49652            2932          5.9051            4982            2648         53.1513        790.2198

ENER_1:   500000     -27436.8182          0.0000          0.0000     -26562.2600       -874.5581          0.0000          0.0000          0.0000          0.0000          0.0000

STAT_1:   500000     624855.8352         12.2900             604         64.1211

PRES_1:   500000         -2.9399         -2.2586         -2.8153

Steps/sec. : 3163.3036
MOVE_0:   600000          237151          118296         49.8821          0.3824               0               0          0.0000          0.7854               0               0          0.0000           60036            2849          4.7455            5909            3152         53.3424       1246.8190

ENER_0:   600000    -826748.6744          0.0000          0.0000    -787885.2810     -38863.3934          0.0000          0.0000          0.0000          0.0000          0.0000

STAT_0:   600000      76520.1657         48.3055            1409       1221.4601

PRES_0:   600000        -75.5587       -103.5790       -132.5113

MOVE_1:   600000          237221          142028         59.8716         42.7306               0               0          0.0000          0.7854               0               0          0.0000           59683            3258          5.4588            5909            3152         53.3424       1246.8190

ENER_1:   600000     -23955.1027          0.0000          0.0000     -23116.8741       -838.2286          0.0000          0.0000          0.0000          0.0000          0.0000

STAT_1:   600000     624176.0843         12.4947             591         62.8094

PRES_1:   600000         -1.7490         -1.9416         -2.8142

Steps/sec. : 3539.4364
MOVE_0:   700000          276560          138032         49.9103          0.3720               0               0          0.0000          0.7854               0               0          0.0000           70094            3233          4.6124            6938            3711         53.4880        775.2174

ENER_0:   700000    -831066.6221          0.0000          0.0000    -792099.4243     -38967.1978          0.0000          0.0000          0.0000          0.0000          0.0000

STAT_0:   700000      77076.4964         33.8620            1416       1218.6682

PRES_0:   700000        -87.4551       -166.8776       -100.5623

MOVE_1:   700000          276627          166653         60.2447         42.7179               0               0          0.0000          0.7854               0               0          0.0000           69781            3649          5.2292            6938            3711         53.4880        775.2174

ENER_1:   700000     -23729.1206          0.0000          0.0000     -22909.9008       -819.2198          0.0000          0.0000          0.0000          0.0000          0.0000

STAT_1:   700000     623619.7536         12.4847             584         62.1208

PRES_1:   700000         -2.6213         -2.0220         -1.4211

Steps/sec. : 3354.9898
MOVE_0:   800000          316352          157955         49.9301          0.3661               0               0          0.0000          0.7854               0               0          0.0000           80163            3597          4.4871            7918            4248         53.6499        830.4899

ENER_0:   800000    -828811.3965          0.0000          0.0000    -789949.3731     -38862.0234          0.0000          0.0000          0.0000          0.0000          0.0000

STAT_0:   800000      77831.8551         29.1851            1421       1211.1025

PRES_0:   800000       -100.8337       -122.9654       -144.8750

MOVE_1:   800000          315695          191221         60.5714         42.7007               0               0          0.0000          0.7854               0               0          0.0000           79872            4018          5.0305            7918            4248         53.6499        830.4899

ENER_1:   800000     -23836.0681          0.0000          0.0000     -23029.8394       -806.2287          0.0000          0.0000          0.0000          0.0000          0.0000

STAT_1:   800000     622864.3949         12.6389             579         61.6637

PRES_1:   800000         -1.3161         -2.1053         -1.8681

Steps/sec. : 3358.5290
MOVE_0:   900000          355869          177768         49.9532          0.4195               0               0          0.0000          0.7854               0               0          0.0000           90190            4034          4.4728            8921            4784         53.6263        527.2724

ENER_0:   900000    -815648.2166          0.0000          0.0000    -777332.9173     -38315.2992          0.0000          0.0000          0.0000          0.0000          0.0000

STAT_0:   900000      79164.8171        -18.9039            1423       1192.3860

PRES_0:   900000       -205.1668       -140.7303       -166.2836

MOVE_1:   900000          355062          216321         60.9249         42.6702               0               0          0.0000          0.7854               0               0          0.0000           89958            4457          4.9545            8921            4784         53.6263        527.2724

ENER_1:   900000     -22574.5238          0.0000          0.0000     -21772.1381       -802.3857          0.0000          0.0000          0.0000          0.0000          0.0000

STAT_1:   900000     621531.4329         13.2507             577         61.5824

PRES_1:   900000         -1.7368         -0.8914         -0.7704

Steps/sec. : 3282.7554
MOVE_0:  1000000          395254          197482         49.9633          0.3763               0               0          0.0000          0.7854               0               0          0.0000          100162            4373          4.3659            9919            5331         53.7453        925.6791

ENER_0:  1000000    -850817.8885          0.0000          0.0000    -811089.1235     -39728.7649          0.0000          0.0000          0.0000          0.0000          0.0000

STAT_0:  1000000      79820.7046        -14.9434            1455       1209.1819

PRES_0:  1000000       -126.9469       -175.2944       -198.7494

MOVE_1:  1000000          394716          241401         61.1581         42.6552               0               0          0.0000          0.7854               0               0          0.0000           99949            4828          4.8305            9919            5331         53.7453        925.6791

ENER_1:  1000000     -21125.0346          0.0000          0.0000     -20408.4242       -716.6104          0.0000          0.0000          0.0000          0.0000          0.0000

STAT_1:  1000000     620875.5454         12.0744             545         58.2286

PRES_1:  1000000         -0.7757         -0.8436         -3.0133

Simulation Time (total): 272.9364sec.
GOMC Serial Version 1.9
Completed at: Sat Apr 22 20:09:38 2017
On hostname: potoff39.eng.wayne.edu
