GOMC Serial Version 1.9
Started at: Fri Dec  9 12:34:40 2016
On hostname: potoff39.eng.wayne.edu

Total number of CPUs: 4
Total number of CPUs available: 4
Model name: Intel(R) Core(TM) i5-2500K CPU @ 3.30GHz

System name: Linux
Release: 2.6.32-642.4.2.el6.x86_64
Version: #1 SMP Tue Aug 23 19:58:13 UTC 2016
Kernel Architecture: x86_64
Total Ram: 7856.3MB
Used Ram: 5552.4MB
Working in the current directory /home3/soroush/Desktop/validation/GOMC_Serial-development_1.90/GOMC_Examples-master/NVT_GEMC/pure_fluid/argon_T_115_00_K

------------------------------------------------------
This code was compiled to support the Gibbs ensemble.
------------------------------------------------------

REMINDER: EXOTIC force field has been selected!
NVT_GEMC simulation has been selected 
Temperature of system has been set to 115.0 K 
Warning: Unknown input FluctuationFreq!
By default intra box swap frequency has been set to zero
Warning: Electrostatic energy would not be calculated!
Reading from Exotic Parameter File file: ./../../../common/Par_Vrabec01_Noble_Gases_Exotic.inp

Finished reading Exotic Parameter File file: ./../../../common/Par_Vrabec01_Noble_Gases_Exotic.inp

Reading from Box 1 PDB coordinate file file: ./STEP3_START_AR_sys_BOX_0.pdb

Finished reading Box 1 PDB coordinate file file: ./STEP3_START_AR_sys_BOX_0.pdb

Reading from Box 2 PDB coordinate file file: ./STEP3_START_AR_sys_BOX_1.pdb

Finished reading Box 2 PDB coordinate file file: ./STEP3_START_AR_sys_BOX_1.pdb

Random number seed: 2032729994

Molecules in PSF:

Molecule Kind: AR
Idx	name	type	charge	mass
0	AR	AR	0.0	39.9

Bonds:

Angles:

Dihedrals:

REMINDER! 1-3 and 1-4 Interaction is OFF


########################## INITIAL SIMULATION ENERGY ##########################
ETITLE_BOX_0    TOTAL           INTRA(B)        INTRA(N)        INTER(LJ)       LRC             TOTAL_ELECT     REAL            RECIP           SELF            CORR            

ENERGY_BOX_0    14312409.0872   0.0000          0.0000          14338253.2067   -25844.1194     0.0000          0.0000          0.0000          0.0000          -0.0000         

ETITLE_BOX_1    TOTAL           INTRA(B)        INTRA(N)        INTER(LJ)       LRC             TOTAL_ELECT     REAL            RECIP           SELF            CORR            

ENERGY_BOX_1    894319.3949     0.0000          0.0000          896649.9654     -2330.5705      0.0000          0.0000          0.0000          0.0000          -0.0000         

###############################################################################

############################# STARTING SIMULATION #############################
MTITLE_BOX_0    DISTRY          DISACCEPT       DISACCEPT%      DISMAX          ROTATE          ROTACCEPT       ROTACCEPT%      ROTMAX          INTRASWAP       INTACCEPT       INTACCEPT%      TRANSFER        TRANACCEPT      TRANACCEPT%     VOLUME          VOLACCEPT       VOLACCEPT%      VOLMAX          STEP            

ETITLE_BOX_0    TOTAL           INTRA(B)        INTRA(N)        INTER(LJ)       LRC             TOTAL_ELECT     REAL            RECIP           SELF            CORR            
STITLE_BOX_0    VOLUME          PRESSURE        TOTALMOL        TOT_DENSITY     

MTITLE_BOX_1    DISTRY          DISACCEPT       DISACCEPT%      DISMAX          ROTATE          ROTACCEPT       ROTACCEPT%      ROTMAX          INTRASWAP       INTACCEPT       INTACCEPT%      TRANSFER        TRANACCEPT      TRANACCEPT%     VOLUME          VOLACCEPT       VOLACCEPT%      VOLMAX          STEP            

ETITLE_BOX_1    TOTAL           INTRA(B)        INTRA(N)        INTER(LJ)       LRC             TOTAL_ELECT     REAL            RECIP           SELF            CORR            
STITLE_BOX_1    VOLUME          PRESSURE        TOTALMOL        TOT_DENSITY     

Printed combined psf to file argon_115_00_K.psf
MOVE_BOX_0      39524           19340           48.9323         0.4319          0               0               0.0000          0.7854          0               0               0.0000          10092           1051            10.4142         1042            576             55.2783         931.2213        100000          

ENERGY_BOX_0    -581149.1659    0.0000          0.0000          -553961.1919    -27187.9739     0.0000          0.0000          0.0000          0.0000          0.0000          

STAT_BOX_0      58564.5917      -59.7227        1031            1167.7980       

MOVE_BOX_1      39397           19743           50.1130         19.0045         0               0               0.0000          0.7854          0               0               0.0000          9945            1082            10.8798         0               0               0.0000          500.0000        100000          

ENERGY_BOX_1    -63966.8178     0.0000          0.0000          -61776.4446     -2190.3731      0.0000          0.0000          0.0000          0.0000          0.0000          

STAT_BOX_1      642131.6583     18.7452         969             100.1023        

Steps/sec. : 4386.8540
MOVE_BOX_0      79050           39109           49.4738         0.3727          0               0               0.0000          0.7854          0               0               0.0000          20114           1402            6.9703          2048            1128            55.0781         903.0723        200000          

ENERGY_BOX_0    -641696.5196    0.0000          0.0000          -611444.0376    -30252.4820     0.0000          0.0000          0.0000          0.0000          0.0000          

STAT_BOX_0      60349.2351      48.9093         1104            1213.5048       

MOVE_BOX_1      78964           40074           50.7497         43.0965         0               0               0.0000          0.7854          0               0               0.0000          19824           1506            7.5969          0               0               0.0000          500.0000        200000          

ENERGY_BOX_1    -52025.0026     0.0000          0.0000          -50147.0040     -1877.9986      0.0000          0.0000          0.0000          0.0000          0.0000          

STAT_BOX_1      640347.0149     16.8963         896             92.8190         

Steps/sec. : 3699.6541
MOVE_BOX_0      118663          58990           49.7122         0.4270          0               0               0.0000          0.7854          0               0               0.0000          30123           1699            5.6402          3047            1667            54.7096         626.7446        300000          

ENERGY_BOX_0    -661624.6310    0.0000          0.0000          -630477.0976    -31147.5334     0.0000          0.0000          0.0000          0.0000          0.0000          

STAT_BOX_0      61734.9064      43.9398         1133            1217.4281       

MOVE_BOX_1      118635          60980           51.4014         43.0654         0               0               0.0000          0.7854          0               0               0.0000          29532           1832            6.2034          0               0               0.0000          500.0000        300000          

ENERGY_BOX_1    -52289.3497     0.0000          0.0000          -50527.1373     -1762.2124      0.0000          0.0000          0.0000          0.0000          0.0000          

STAT_BOX_1      638961.3436     16.0688         867             90.0096         

Steps/sec. : 3539.2873
MOVE_BOX_0      158220          78814           49.8129         0.4166          0               0               0.0000          0.7854          0               0               0.0000          40072           1978            4.9361          4013            2193            54.6474         586.9471        400000          

ENERGY_BOX_0    -692358.0397    0.0000          0.0000          -659760.3862    -32597.6534     0.0000          0.0000          0.0000          0.0000          0.0000          

STAT_BOX_0      62260.7369      97.5530         1164            1240.1748       

MOVE_BOX_1      158172          82152           51.9384         43.0536         0               0               0.0000          0.7854          0               0               0.0000          39523           2142            5.4196          0               0               0.0000          500.0000        400000          

ENERGY_BOX_1    -45920.9420     0.0000          0.0000          -44281.1448     -1639.7972      0.0000          0.0000          0.0000          0.0000          0.0000          

STAT_BOX_1      638435.5131     14.7093         836             86.8627         

Steps/sec. : 3464.2086
MOVE_BOX_0      197576          98545           49.8770         0.4145          0               0               0.0000          0.7854          0               0               0.0000          50205           2221            4.4239          5023            2732            54.3898         384.9904        500000          

ENERGY_BOX_0    -714959.1419    0.0000          0.0000          -681419.2398    -33539.9022     0.0000          0.0000          0.0000          0.0000          0.0000          

STAT_BOX_0      65280.7965      32.5713         1209            1228.5280       

MOVE_BOX_1      197686          103875          52.5455         42.9856         0               0               0.0000          0.7854          0               0               0.0000          49510           2430            4.9081          0               0               0.0000          500.0000        500000          

ENERGY_BOX_1    -46537.0682     0.0000          0.0000          -45062.0756     -1474.9926      0.0000          0.0000          0.0000          0.0000          0.0000          

STAT_BOX_1      635415.4535     13.9059         791             82.5777         

Steps/sec. : 4351.3013
MOVE_BOX_0      237035          118280          49.8998         0.3325          0               0               0.0000          0.7854          0               0               0.0000          60147           2466            4.1000          5995            3265            54.4621         903.0371        600000          

ENERGY_BOX_0    -746364.2970    0.0000          0.0000          -711268.2651    -35096.0319     0.0000          0.0000          0.0000          0.0000          0.0000          

STAT_BOX_0      66689.3745      43.5535         1250            1243.3619       

MOVE_BOX_1      237177          125826          53.0515         42.9538         0               0               0.0000          0.7854          0               0               0.0000          59646           2716            4.5535          0               0               0.0000          500.0000        600000          

ENERGY_BOX_1    -39591.5952     0.0000          0.0000          -38262.6007     -1328.9945      0.0000          0.0000          0.0000          0.0000          0.0000          

STAT_BOX_1      634006.8755     12.9433         750             78.4714         

Steps/sec. : 7196.9706
MOVE_BOX_0      276498          138107          49.9486         0.4415          0               0               0.0000          0.7854          0               0               0.0000          70153           2707            3.8587          6900            3759            54.4783         828.4070        700000          

ENERGY_BOX_0    -753297.9836    0.0000          0.0000          -718055.3575    -35242.6261     0.0000          0.0000          0.0000          0.0000          0.0000          

STAT_BOX_0      67693.2057      14.8384         1262            1236.6832       

MOVE_BOX_1      276820          148629          53.6916         42.9311         0               0               0.0000          0.7854          0               0               0.0000          69629           2969            4.2640          0               0               0.0000          500.0000        700000          

ENERGY_BOX_1    -42348.2809     0.0000          0.0000          -41059.4334     -1288.8476      0.0000          0.0000          0.0000          0.0000          0.0000          

STAT_BOX_1      633003.0443     13.3473         738             77.3383         

Steps/sec. : 7407.8382
MOVE_BOX_0      315901          157829          49.9615         0.4106          0               0               0.0000          0.7854          0               0               0.0000          80226           3013            3.7556          7845            4282            54.5825         1219.9024       800000          

ENERGY_BOX_0    -741789.7553    0.0000          0.0000          -707015.5805    -34774.1748     0.0000          0.0000          0.0000          0.0000          0.0000          

STAT_BOX_0      69806.2984      0.3670          1273            1209.7009       

MOVE_BOX_1      316453          171122          54.0750         42.8833         0               0               0.0000          0.7854          0               0               0.0000          79575           3286            4.1294          0               0               0.0000          500.0000        800000          

ENERGY_BOX_1    -39245.2072     0.0000          0.0000          -37990.3051     -1254.9021      0.0000          0.0000          0.0000          0.0000          0.0000          

STAT_BOX_1      630889.9516     13.4879         727             76.4408         

Steps/sec. : 6546.8149
MOVE_BOX_0      355504          177689          49.9823         0.4356          0               0               0.0000          0.7854          0               0               0.0000          90279           3316            3.6731          8792            4783            54.4017         892.7417        900000          

ENERGY_BOX_0    -761064.1284    0.0000          0.0000          -725582.8340    -35481.2945     0.0000          0.0000          0.0000          0.0000          0.0000          

STAT_BOX_0      70909.6239      -62.7863        1296            1212.3947       

MOVE_BOX_1      355874          193970          54.5052         42.8583         0               0               0.0000          0.7854          0               0               0.0000          89551           3612            4.0335          0               0               0.0000          500.0000        900000          

ENERGY_BOX_1    -36638.6316     0.0000          0.0000          -35459.8143     -1178.8173      0.0000          0.0000          0.0000          0.0000          0.0000          

STAT_BOX_1      629786.6261     15.3883         704             74.1521         

Steps/sec. : 6727.4990
MOVE_BOX_0      395248          197573          49.9871         0.3793          0               0               0.0000          0.7854          0               0               0.0000          100141          3573            3.5680          9807            5315            54.1960         414.1865        1000000         

ENERGY_BOX_0    -793110.4129    0.0000          0.0000          -756064.6785    -37045.7343     0.0000          0.0000          0.0000          0.0000          0.0000          

STAT_BOX_0      69814.7451      70.4002         1314            1248.5111       

MOVE_BOX_1      395099          216798          54.8718         42.8831         0               0               0.0000          0.7854          0               0               0.0000          99705           3887            3.8985          0               0               0.0000          500.0000        1000000         

ENERGY_BOX_1    -31407.0676     0.0000          0.0000          -30289.7026     -1117.3650      0.0000          0.0000          0.0000          0.0000          0.0000          

STAT_BOX_1      630881.5049     12.6923         686             72.1308         

Simulation Time (total): 203.0765sec.
GOMC Serial Version 1.9
Completed at: Fri Dec  9 12:38:03 2016
On hostname: potoff39.eng.wayne.edu
