GOMC Serial Version 2.0
Started at: Sat Apr 22 20:27:24 2017
On hostname: potoff39.eng.wayne.edu

Total number of CPUs: 4
Total number of CPUs available: 4
Model name: Intel(R) Core(TM) i5-2500K CPU @ 3.30GHz

System name: Linux
Release: 2.6.32-642.4.2.el6.x86_64
Version: #1 SMP Tue Aug 23 19:58:13 UTC 2016
Kernel Architecture: x86_64
Total Ram: 7856.3MB
Used Ram: 5366.0MB
Working in the current directory /home3/soroush/Desktop/validation/GOMC_Examples/NVT_GEMC/binary_mixture/argon_and_krypton_T_143_15_K/x_0.500

------------------------------------------------------
This code was compiled to support the Gibbs ensemble.
------------------------------------------------------

REMINDER: EXOTIC force field has been selected!
NVT_GEMC simulation has been selected 
Temperature of system has been set to 143.15000 K 
Note: Pressure will be calculated every 1000 steps.
By default intra box swap frequency has been set to zero
Warning: Electrostatic energy would not be calculated!
Reading from Exotic Parameter File file: ./../../../../common/Par_Vrabec01_Noble_Gases_Exotic.inp
Finished reading Exotic Parameter File file: ./../../../../common/Par_Vrabec01_Noble_Gases_Exotic.inp
Reading from Box 1 PDB coordinate file file: ./STEP3_START_AR_KR_sys_BOX_0.pdb
Finished reading Box 1 PDB coordinate file file: ./STEP3_START_AR_KR_sys_BOX_0.pdb
Reading from Box 2 PDB coordinate file file: ./STEP3_START_AR_KR_sys_BOX_1.pdb
Finished reading Box 2 PDB coordinate file file: ./STEP3_START_AR_KR_sys_BOX_1.pdb
Random number seed: 2946004531

Molecules in PSF:
Molecule Kind: AR
Idx	name	type	charge	mass
0	AR	AR	0.0000	39.9480
Bonds:
Angles:
Dihedrals:

Molecule Kind: KR
Idx	name	type	charge	mass
0	KR	KR	0.0000	83.7980
Bonds:
Angles:
Dihedrals:

REMINDER! 1-3 and 1-4 Interaction is OFF
Minimum coordinates in box 0: x =    1.000, y =    1.092, z =    1.000
Maximum coordinates in box 0: x =   38.802, y =   38.839, z =   39.000
Minimum coordinates in box 1: x =    1.024, y =    1.013, z =    1.000
Maximum coordinates in box 1: x =   39.000, y =   39.000, z =   39.000

###############################################################################
########################## INITIAL SIMULATION ENERGY ##########################

ETITLE:     STEP           TOTAL        INTRA(B)       INTRA(NB)       INTER(LJ)             LRC     TOTAL_ELECT            REAL           RECIP            SELF            CORR

ENER_0:        0    6509017.1241          0.0000          0.0000    6517350.1298      -8333.0058          0.0000          0.0000          0.0000          0.0000         -0.0000

ENER_1:        0    -103407.3618          0.0000          0.0000     -95074.3561      -8333.0058          0.0000          0.0000          0.0000          0.0000         -0.0000

###############################################################################
############################# STARTING SIMULATION #############################

MTITLE:     STEP          DISTRY       DISACCEPT      DISACCEPT%          DISMAX          ROTATE       ROTACCEPT      ROTACCEPT%          ROTMAX       INTRASWAP       INTACCEPT      INTACCEPT%        TRANSFER      TRANACCEPT     TRANACCEPT%          VOLUME       VOLACCEPT      VOLACCEPT%          VOLMAX

ETITLE:     STEP           TOTAL        INTRA(B)       INTRA(NB)       INTER(LJ)             LRC     TOTAL_ELECT            REAL           RECIP            SELF            CORR

STITLE:     STEP          VOLUME        PRESSURE        TOTALMOL      MOLFRAC_AR      MOLFRAC_KR     TOT_DENSITY

Printed combined psf to file argon_krypton_NVT_143_15_K_merged.psf
MOVE_0:   100000           39445           20192         51.1903         21.3220               0               0          0.0000          0.7854               0               0          0.0000            9802            1921         19.5980            1003             557         55.5334       1085.5881

ENER_0:   100000      -6306.9674          0.0000          0.0000      -6053.2496       -253.7178          0.0000          0.0000          0.0000          0.0000          0.0000

STAT_0:   100000      77548.5845         19.6668             104          0.7692          0.2308        111.4967

PRES_0:   100000         -3.7610         -5.3820         -8.6640

MOVE_1:   100000           39653           19418         48.9698          0.4257               0               0          0.0000          0.7854               0               0          0.0000           10097            1525         15.1035            1003             557         55.5334       1085.5881

ENER_1:   100000    -611717.7695          0.0000          0.0000    -579190.0216     -32527.7479          0.0000          0.0000          0.0000          0.0000          0.0000

STAT_1:   100000      56298.2475         31.8512             896          0.4688          0.5312       1671.3865

PRES_1:   100000       -142.5054        -81.2775       -146.0022

Steps/sec. : 6025.8616
MOVE_0:   200000           78891           42766         54.2090         21.3225               0               0          0.0000          0.7854               0               0          0.0000           19800            2444         12.3434            1930            1073         55.5959       1461.1599

ENER_0:   200000      -4088.3432          0.0000          0.0000      -3874.2474       -214.0959          0.0000          0.0000          0.0000          0.0000          0.0000

STAT_0:   200000      77554.4286         27.9103              96          0.7812          0.2188        101.8290

PRES_0:   200000          0.9702          7.2075          4.4447

MOVE_1:   200000           79116           39201         49.5488          0.4278               0               0          0.0000          0.7854               0               0          0.0000           20263            2040         10.0676            1930            1073         55.5959       1461.1599

ENER_1:   200000    -616535.6410          0.0000          0.0000    -583453.5150     -33082.1259          0.0000          0.0000          0.0000          0.0000          0.0000

STAT_1:   200000      56292.4034        138.4565             904          0.4701          0.5299       1684.8678

PRES_1:   200000         11.0374         -7.4114        -53.9171

Steps/sec. : 5227.5055
MOVE_0:   300000          118458           66565         56.1929         21.2904               0               0          0.0000          0.7854               0               0          0.0000           29628            2983         10.0682            2939            1606         54.6444        782.7622

ENER_0:   300000      -3973.5451          0.0000          0.0000      -3791.5878       -181.9573          0.0000          0.0000          0.0000          0.0000          0.0000

STAT_0:   300000      77203.7638         16.5473              88          0.7727          0.2273         94.4746

PRES_0:   300000         -6.3758         -7.4408         -2.1738

MOVE_1:   300000          118862           59102         49.7232          0.4041               0               0          0.0000          0.7854               0               0          0.0000           30113            2571          8.5378            2939            1606         54.6444        782.7622

ENER_1:   300000    -627501.1658          0.0000          0.0000    -594123.7443     -33377.4215          0.0000          0.0000          0.0000          0.0000          0.0000

STAT_1:   300000      56643.0682         58.0216             912          0.4737          0.5263       1685.0915

PRES_1:   300000       -149.3384        -63.5218        -79.9105

Steps/sec. : 4925.7798
MOVE_0:   400000          158468           90136         56.8796         21.1333               0               0          0.0000          0.7854               0               0          0.0000           39494            3526          8.9279            3981            2158         54.2075        684.5871

ENER_0:   400000      -3629.1286          0.0000          0.0000      -3493.2832       -135.8455          0.0000          0.0000          0.0000          0.0000          0.0000

STAT_0:   400000      75507.9090         16.1222              77          0.8312          0.1688         80.1824

PRES_0:   400000         -3.4718         -2.2268         -4.9090

MOVE_1:   400000          158241           78837         49.8208          0.4024               0               0          0.0000          0.7854               0               0          0.0000           39816            3103          7.7933            3981            2158         54.2075        684.5871

ENER_1:   400000    -625217.8667          0.0000          0.0000    -591993.2522     -33224.6145          0.0000          0.0000          0.0000          0.0000          0.0000

STAT_1:   400000      58338.9230        -14.1810             923          0.4724          0.5276       1657.3522

PRES_1:   400000       -205.2557       -135.6591       -168.2415

Steps/sec. : 4844.2940
MOVE_0:   500000          197902          113599         57.4016         21.2313               0               0          0.0000          0.7854               0               0          0.0000           49508            4129          8.3401            4999            2701         54.0308       1355.9545

ENER_0:   500000      -3577.7165          0.0000          0.0000      -3439.0360       -138.6804          0.0000          0.0000          0.0000          0.0000          0.0000

STAT_0:   500000      76563.6395         23.1690              78          0.8205          0.1795         80.8942

PRES_0:   500000          2.9008          1.4439          6.2578

MOVE_1:   500000          197552           98562         49.8917          0.4585               0               0          0.0000          0.7854               0               0          0.0000           50039            3707          7.4082            4999            2701         54.0308       1355.9545

ENER_1:   500000    -631972.6562          0.0000          0.0000    -598221.2893     -33751.3668          0.0000          0.0000          0.0000          0.0000          0.0000

STAT_1:   500000      57283.1925        101.7091             922          0.4729          0.5271       1685.4681

PRES_1:   500000        -23.7342         -7.3896       -130.3142

Steps/sec. : 4857.4905
MOVE_0:   600000          237635          138197         58.1552         21.3164               0               0          0.0000          0.7854               0               0          0.0000           59498            4704          7.9061            5988            3214         53.6740       1263.9348

ENER_0:   600000      -3815.1832          0.0000          0.0000      -3683.1847       -131.9984          0.0000          0.0000          0.0000          0.0000          0.0000

STAT_0:   600000      77487.5005         23.1867              76          0.8026          0.1974         79.1572

PRES_0:   600000         -1.8071          1.8813         12.7424

MOVE_1:   600000          236955          118300         49.9251          0.4163               0               0          0.0000          0.7854               0               0          0.0000           59924            4280          7.1424            5988            3214         53.6740       1263.9348

ENER_1:   600000    -647908.4979          0.0000          0.0000    -613509.3303     -34399.1676          0.0000          0.0000          0.0000          0.0000          0.0000

STAT_1:   600000      56359.3315         96.1670             924          0.4751          0.5249       1714.1589

PRES_1:   600000        -36.4327        -59.3634        -82.5051

Steps/sec. : 4936.5588
MOVE_0:   700000          277355          162487         58.5845         21.3204               0               0          0.0000          0.7854               0               0          0.0000           69557            5239          7.5320            6962            3725         53.5047       1229.2947

ENER_0:   700000      -3607.8572          0.0000          0.0000      -3452.6310       -155.2262          0.0000          0.0000          0.0000          0.0000          0.0000

STAT_0:   700000      77531.5461         19.4668              83          0.8193          0.1807         85.1014

PRES_0:   700000         -4.0657          1.3074         -0.6576

MOVE_1:   700000          276242          137974         49.9468          0.3958               0               0          0.0000          0.7854               0               0          0.0000           69884            4822          6.9000            6962            3725         53.5047       1229.2947

ENER_1:   700000    -635532.4639          0.0000          0.0000    -601529.2632     -34003.2007          0.0000          0.0000          0.0000          0.0000          0.0000

STAT_1:   700000      56315.2859        153.6865             917          0.4711          0.5289       1707.2541

PRES_1:   700000         41.1082        -84.8890         39.2219

Steps/sec. : 4977.4407
MOVE_0:   800000          316866          185668         58.5951         21.2740               0               0          0.0000          0.7854               0               0          0.0000           79609            5807          7.2944            8000            4290         53.6250        954.9886

ENER_0:   800000      -4314.8994          0.0000          0.0000      -4129.0691       -185.8302          0.0000          0.0000          0.0000          0.0000          0.0000

STAT_0:   800000      77025.8990         19.1955              92          0.8587          0.1413         91.5203

PRES_0:   800000         -5.0469         -0.8708         -5.3168

MOVE_1:   800000          315678          157755         49.9734          0.4746               0               0          0.0000          0.7854               0               0          0.0000           79847            5399          6.7617            8000            4290         53.6250        954.9886

ENER_1:   800000    -628056.1951          0.0000          0.0000    -594838.8104     -33217.3848          0.0000          0.0000          0.0000          0.0000          0.0000

STAT_1:   800000      56820.9330         37.6739             908          0.4637          0.5363       1684.1173

PRES_1:   800000        -48.4907       -122.9245       -179.0962

Steps/sec. : 4817.9515
MOVE_0:   900000          356538          209265         58.6936         21.2778               0               0          0.0000          0.7854               0               0          0.0000           89525            6390          7.1377            9009            4826         53.5687       1005.4949

ENER_0:   900000      -2343.1478          0.0000          0.0000      -2192.3719       -150.7759          0.0000          0.0000          0.0000          0.0000          0.0000

STAT_0:   900000      77067.0342         16.7049              81          0.8025          0.1975         84.8377

PRES_0:   900000         -6.0285         -4.3420         -0.2129

MOVE_1:   900000          355164          177541         49.9885          0.4213               0               0          0.0000          0.7854               0               0          0.0000           89764            5971          6.6519            9009            4826         53.5687       1005.4949

ENER_1:   900000    -632340.5367          0.0000          0.0000    -598522.1248     -33818.4119          0.0000          0.0000          0.0000          0.0000          0.0000

STAT_1:   900000      56779.7978        125.3616             919          0.4733          0.5267       1694.3413

PRES_1:   900000       -141.2820        -79.4135        130.1886

Steps/sec. : 4933.3293
MOVE_0:  1000000          395959          233102         58.8702         21.1852               0               0          0.0000          0.7854               0               0          0.0000           99722            7006          7.0255           10074            5408         53.6827        808.9763

ENER_0:  1000000      -4199.1288          0.0000          0.0000      -4059.1510       -139.9779          0.0000          0.0000          0.0000          0.0000          0.0000

STAT_0:  1000000      76065.6365         13.8369              79          0.8481          0.1519         80.3813

PRES_0:  1000000         -5.8861         -6.8434         -5.8154

MOVE_1:  1000000          394469          197263         50.0072          0.4354               0               0          0.0000          0.7854               0               0          0.0000           99776            6585          6.5998           10074            5408         53.6827        808.9763

ENER_1:  1000000    -633018.9592          0.0000          0.0000    -599565.8503     -33453.1089          0.0000          0.0000          0.0000          0.0000          0.0000

STAT_1:  1000000      57781.1955        -17.5269             921          0.4701          0.5299       1672.3138

PRES_1:  1000000        -72.6294       -247.5615       -198.1813

Simulation Time (total): 199.9359sec.
GOMC Serial Version 2.0
Completed at: Sat Apr 22 20:30:44 2017
On hostname: potoff39.eng.wayne.edu
