GOMC Serial Version 2.0
Started at: Sat Apr 22 20:43:38 2017
On hostname: potoff39.eng.wayne.edu

Total number of CPUs: 4
Total number of CPUs available: 4
Model name: Intel(R) Core(TM) i5-2500K CPU @ 3.30GHz

System name: Linux
Release: 2.6.32-642.4.2.el6.x86_64
Version: #1 SMP Tue Aug 23 19:58:13 UTC 2016
Kernel Architecture: x86_64
Total Ram: 7856.3MB
Used Ram: 5240.4MB
Working in the current directory /home3/soroush/Desktop/validation/GOMC_Examples/NPT_GEMC/binary_mixture/krypton_and_xenon_T_216_61_K/x_0.475

------------------------------------------------------
This code was compiled to support the Gibbs ensemble.
------------------------------------------------------

REMINDER: EXOTIC force field has been selected!
NPT_GEMC simulation has been selected 
Pressure of system has been set to 24.50000 bar 
Temperature of system has been set to 216.61000 K 
Note: Pressure will be calculated every 1000 steps.
By default intra box swap frequency has been set to zero
Warning: Electrostatic energy would not be calculated!
Reading from Exotic Parameter File file: ./../../../../common/Par_Vrabec01_Noble_Gases_Exotic.inp
Finished reading Exotic Parameter File file: ./../../../../common/Par_Vrabec01_Noble_Gases_Exotic.inp
Reading from Box 1 PDB coordinate file file: ./STEP3_START_KR_XE_sys_BOX_0.pdb
Finished reading Box 1 PDB coordinate file file: ./STEP3_START_KR_XE_sys_BOX_0.pdb
Reading from Box 2 PDB coordinate file file: ./STEP3_START_KR_XE_sys_BOX_1.pdb
Finished reading Box 2 PDB coordinate file file: ./STEP3_START_KR_XE_sys_BOX_1.pdb
Random number seed: 1519223915

Molecules in PSF:
Molecule Kind: KR
Idx	name	type	charge	mass
0	KR	KR	0.0000	83.7980
Bonds:
Angles:
Dihedrals:

Molecule Kind: XE
Idx	name	type	charge	mass
0	XE	XE	0.0000	131.2930
Bonds:
Angles:
Dihedrals:

REMINDER! 1-3 and 1-4 Interaction is OFF
Minimum coordinates in box 0: x =    1.000, y =    1.000, z =    1.000
Maximum coordinates in box 0: x =   75.000, y =   74.999, z =   75.000
Minimum coordinates in box 1: x =    1.000, y =    1.000, z =    1.000
Maximum coordinates in box 1: x =   81.000, y =   81.000, z =   81.000

###############################################################################
########################## INITIAL SIMULATION ENERGY ##########################

ETITLE:     STEP           TOTAL        INTRA(B)       INTRA(NB)       INTER(LJ)             LRC     TOTAL_ELECT            REAL           RECIP            SELF            CORR

ENER_0:        0   40538127.7246          0.0000          0.0000   40580809.4205     -42681.6959          0.0000          0.0000          0.0000          0.0000         -0.0000

ENER_1:        0    -220797.0826          0.0000          0.0000    -186737.8925     -34059.1901          0.0000          0.0000          0.0000          0.0000         -0.0000

###############################################################################
############################# STARTING SIMULATION #############################

MTITLE:     STEP          DISTRY       DISACCEPT      DISACCEPT%          DISMAX          ROTATE       ROTACCEPT      ROTACCEPT%          ROTMAX       INTRASWAP       INTACCEPT      INTACCEPT%        TRANSFER      TRANACCEPT     TRANACCEPT%          VOLUME       VOLACCEPT      VOLACCEPT%          VOLMAX

ETITLE:     STEP           TOTAL        INTRA(B)       INTRA(NB)       INTER(LJ)             LRC     TOTAL_ELECT            REAL           RECIP            SELF            CORR

STITLE:     STEP          VOLUME        TOTALMOL      MOLFRAC_KR      MOLFRAC_XE     TOT_DENSITY

Printed combined psf to file krypton_xenon_NPT_216_61_K_merged.psf
MOVE_0:   100000           39730           19395         48.8170          1.0929               0               0          0.0000          0.7854               0               0          0.0000            9890            5568         56.2993             962             532         55.3015       4930.7050

ENER_0:   100000   -1210238.0024          0.0000          0.0000   -1140142.8597     -70095.1427          0.0000          0.0000          0.0000          0.0000          0.0000

STAT_0:   100000     464306.4034            2564          0.4431          0.5569       1010.9763

MOVE_1:   100000           39410           19436         49.3174          3.0331               0               0          0.0000          0.7854               0               0          0.0000           10008            6132         61.2710             962             532         55.3015       4930.7050

ENER_1:   100000    -272900.8273          0.0000          0.0000    -259478.5321     -13422.2952          0.0000          0.0000          0.0000          0.0000          0.0000

STAT_1:   100000     710988.6003            1436          0.5320          0.4680        355.5866

Steps/sec. : 7607.1607
MOVE_0:   200000           79296           39154         49.3770          0.7776               0               0          0.0000          0.7854               0               0          0.0000           19862           10164         51.1731            1943            1048         53.9372       4351.2754

ENER_0:   200000   -1943219.4963          0.0000          0.0000   -1825554.4457    -117665.0506          0.0000          0.0000          0.0000          0.0000          0.0000

STAT_0:   200000     415755.1868            3134          0.4349          0.5651       1384.8768

MOVE_1:   200000           78762           40678         51.6467         47.8192               0               0          0.0000          0.7854               0               0          0.0000           20137           11298         56.1057            1943            1048         53.9372       4351.2754

ENER_1:   200000     -71095.5692          0.0000          0.0000     -67393.1483      -3702.4209          0.0000          0.0000          0.0000          0.0000          0.0000

STAT_1:   200000     874774.9127             866          0.6201          0.3799        167.4158

Steps/sec. : 5905.3714
MOVE_0:   300000          118813           58940         49.6074          0.7179               0               0          0.0000          0.7854               0               0          0.0000           29920           14015         46.8416            2961            1592         53.7656       2339.2246

ENER_0:   300000   -2230715.7201          0.0000          0.0000   -2095482.0936    -135233.6265          0.0000          0.0000          0.0000          0.0000          0.0000

STAT_0:   300000     390913.2240            3249          0.4275          0.5725       1531.7751

MOVE_1:   300000          118247           64444         54.4995         46.4387               0               0          0.0000          0.7854               0               0          0.0000           30059           15264         50.7801            2961            1592         53.7656       2339.2246

ENER_1:   300000     -53013.7488          0.0000          0.0000     -50118.6242      -2895.1247          0.0000          0.0000          0.0000          0.0000          0.0000

STAT_1:   300000     801178.5261             751          0.6804          0.3196        154.0602

Steps/sec. : 4955.0208
MOVE_0:   400000          158553           78846         49.7285          0.6731               0               0          0.0000          0.7854               0               0          0.0000           39984           17350         43.3924            4005            2162         53.9825       3064.5766

ENER_0:   400000   -2518274.0548          0.0000          0.0000   -2356818.4330    -161455.6218          0.0000          0.0000          0.0000          0.0000          0.0000

STAT_0:   400000     361483.1537            3421          0.4332          0.5668       1739.9301

MOVE_1:   400000          157485           88778         56.3724         45.5348               0               0          0.0000          0.7854               0               0          0.0000           39973           18771         46.9592            4005            2162         53.9825       3064.5766

ENER_1:   400000     -34938.7567          0.0000          0.0000     -33175.0706      -1763.6861          0.0000          0.0000          0.0000          0.0000          0.0000

STAT_1:   400000     755303.5517             579          0.7219          0.2781        123.4807

Steps/sec. : 4529.4415
MOVE_0:   500000          198023           98621         49.8028          0.6332               0               0          0.0000          0.7854               0               0          0.0000           49965           20345         40.7185            4965            2678         53.9376       2901.7592

ENER_0:   500000   -2648975.4314          0.0000          0.0000   -2476997.2670    -171978.1644          0.0000          0.0000          0.0000          0.0000          0.0000

STAT_0:   500000     351630.5298            3492          0.4407          0.5593       1819.9194

MOVE_1:   500000          197080          114189         57.9404         41.7719               0               0          0.0000          0.7854               0               0          0.0000           49967           21837         43.7028            4965            2678         53.9376       2901.7592

ENER_1:   500000     -31721.1872          0.0000          0.0000     -29945.9154      -1775.2718          0.0000          0.0000          0.0000          0.0000          0.0000

STAT_1:   500000     583098.0864             508          0.7106          0.2894        141.1111

Steps/sec. : 4548.2976
MOVE_0:   600000          237637          118450         49.8449          0.5694               0               0          0.0000          0.7854               0               0          0.0000           59994           22944         38.2438            5908            3159         53.4699       2730.4528

ENER_0:   600000   -2759961.9455          0.0000          0.0000   -2579235.9163    -180726.0292          0.0000          0.0000          0.0000          0.0000          0.0000

STAT_0:   600000     335313.9056            3491          0.4371          0.5629       1910.8855

MOVE_1:   600000          236594          138720         58.6321         41.3105               0               0          0.0000          0.7854               0               0          0.0000           59867           24435         40.8155            5908            3159         53.4699       2730.4528

ENER_1:   600000     -34507.4553          0.0000          0.0000     -32701.6310      -1805.8243          0.0000          0.0000          0.0000          0.0000          0.0000

STAT_1:   600000     563990.1480             509          0.7348          0.2652        144.4606

Steps/sec. : 4012.8538
MOVE_0:   700000          277318          138317         49.8767          0.5293               0               0          0.0000          0.7854               0               0          0.0000           69992           25088         35.8441            6924            3714         53.6395       1818.6833

ENER_0:   700000   -2960489.7023          0.0000          0.0000   -2765501.3415    -194988.3609          0.0000          0.0000          0.0000          0.0000          0.0000

STAT_0:   700000     323231.6504            3563          0.4392          0.5608       2021.3611

MOVE_1:   700000          275837          162964         59.0798         39.2337               0               0          0.0000          0.7854               0               0          0.0000           69929           26651         38.1115            6924            3714         53.6395       1818.6833

ENER_1:   700000     -28299.9348          0.0000          0.0000     -26787.3926      -1512.5423          0.0000          0.0000          0.0000          0.0000          0.0000

STAT_1:   700000     483134.2945             437          0.7666          0.2334        142.5131

Steps/sec. : 3158.0797
MOVE_0:   800000          316845          158142         49.9115          0.5698               0               0          0.0000          0.7854               0               0          0.0000           80182           26956         33.6185            7903            4243         53.6885       2643.1560

ENER_0:   800000   -3002286.4636          0.0000          0.0000   -2804274.8435    -198011.6200          0.0000          0.0000          0.0000          0.0000          0.0000

STAT_0:   800000     314153.4264            3543          0.4417          0.5583       2065.8935

MOVE_1:   800000          315256          186688         59.2179         38.4453               0               0          0.0000          0.7854               0               0          0.0000           79814           28499         35.7068            7903            4243         53.6885       2643.1560

ENER_1:   800000     -37797.3611          0.0000          0.0000     -35988.7098      -1808.6513          0.0000          0.0000          0.0000          0.0000          0.0000

STAT_1:   800000     454591.4660             457          0.7330          0.2670        161.0530

Steps/sec. : 3211.4570
MOVE_0:   900000          356371          177941         49.9314          0.5611               0               0          0.0000          0.7854               0               0          0.0000           90029           28557         31.7198            8939            4803         53.7308       4186.1866

ENER_0:   900000   -3173916.2345          0.0000          0.0000   -2963426.5285    -210489.7059          0.0000          0.0000          0.0000          0.0000          0.0000

STAT_0:   900000     306075.8214            3608          0.4435          0.5565       2157.6951

MOVE_1:   900000          354722          210520         59.3479         38.5239               0               0          0.0000          0.7854               0               0          0.0000           89939           30165         33.5394            8939            4803         53.7308       4186.1866

ENER_1:   900000     -22394.3827          0.0000          0.0000     -21107.3752      -1287.0075          0.0000          0.0000          0.0000          0.0000          0.0000

STAT_1:   900000     457381.9837             392          0.7653          0.2347        135.1224

Steps/sec. : 3046.0468
MOVE_0:  1000000          395854          197714         49.9462          0.5077               0               0          0.0000          0.7854               0               0          0.0000           99974           29949         29.9568            9937            5330         53.6379       1645.7956

ENER_0:  1000000   -3116646.5440          0.0000          0.0000   -2909528.9718    -207117.5721          0.0000          0.0000          0.0000          0.0000          0.0000

STAT_0:  1000000     300679.1012            3538          0.4364          0.5636       2160.3552

MOVE_1:  1000000          394337          234329         59.4235         38.0969               0               0          0.0000          0.7854               0               0          0.0000           99898           31487         31.5191            9937            5330         53.6379       1645.7956

ENER_1:  1000000     -38329.6809          0.0000          0.0000     -36489.4793      -1840.2016          0.0000          0.0000          0.0000          0.0000          0.0000

STAT_1:  1000000     442342.4185             462          0.7706          0.2294        164.2329

Simulation Time (total): 246.6649sec.
GOMC Serial Version 2.0
Completed at: Sat Apr 22 20:47:44 2017
On hostname: potoff39.eng.wayne.edu
