GOMC Serial Version 1.9
Started at: Sat Apr 22 21:46:03 2017
On hostname: potoff13.eng.wayne.edu

Total number of CPUs: 32
Total number of CPUs available: 32
Model name: Intel(R) Xeon(R) CPU E5-2640 v3 @ 2.60GHz

System name: Linux
Release: 3.10.0-327.4.5.el7.x86_64
Version: #1 SMP Mon Jan 25 13:30:47 CST 2016
Kernel Architecture: x86_64
Total Ram: 31904.2MB
Used Ram: 28063.6MB
Working in the current directory /home3/soroush/Desktop/validation/GOMC_Examples/GCMC/DME/run2a_bridge

------------------------------------------------------
This code was compiled to support the grand canonical ensemble.
------------------------------------------------------

Number of threads has been set to: 4
REMINDER: EXOTIC force field has been selected!
Temperature of system has been set to 290.00000 K 
Ewald Summation method will be used to calculate electrostatic interactions.
Warning: Pressure calculation is turned off.
By default intra box swap frequency has been set to zero
Warning: 1-4 electro static scaling has been set to zero!
Warning: By default, Fourier terms of ewald method will be cached!
Reading from Exotic Parameter File file: ./../../../common/Par_DME_Exotic.inp
Finished reading Exotic Parameter File file: ./../../../common/Par_DME_Exotic.inp
Reading from Box 1 PDB coordinate file file: ./STEP3_START_DME_BOX_0.pdb
Finished reading Box 1 PDB coordinate file file: ./STEP3_START_DME_BOX_0.pdb
Reading from Box 2 PDB coordinate file file: ./STEP3_START_DME_BOX_Res.pdb
Finished reading Box 2 PDB coordinate file file: ./STEP3_START_DME_BOX_Res.pdb
Random number seed: 937705688

Molecules in PSF:
Molecule Kind: DME
Idx	name	type	charge	mass
0	C1	CT3	0.2650	15.0347
1	O1	OT	-0.5300	15.9994
2	C2	CT3	0.2650	15.0347
Bonds:
[0 1] [1 2] 
Angles:
[0 1 2] 
Dihedrals:

REMINDER! 1-3 and 1-4 Interaction is OFF
Minimum coordinates in box 0: x =    0.098, y =    0.088, z =    0.094
Maximum coordinates in box 0: x =   24.044, y =   24.080, z =   24.086
Minimum coordinates in box 1: x =    0.151, y =    0.101, z =    0.100
Maximum coordinates in box 1: x =   23.986, y =   24.000, z =   24.000
Box 0, RecipVectors:   1595, kmax: 10, alpha: 0.3393076

###############################################################################
########################## INITIAL SIMULATION ENERGY ##########################

ETITLE:     STEP           TOTAL        INTRA(B)       INTRA(NB)       INTER(LJ)             LRC     TOTAL_ELECT            REAL           RECIP            SELF            CORR

ENER_0:        0  714712342.3500       4847.6120          0.0000  714740405.6642     -13592.0518     -19318.8745     -18693.9003      75091.4123   -1751139.4495    1675423.0630

ENER_1:        0      14953.1600      14953.1600          0.0000          0.0000          0.0000          0.0000          0.0000          0.0000          0.0000         -0.0000

###############################################################################
############################# STARTING SIMULATION #############################

MTITLE:     STEP          DISTRY       DISACCEPT      DISACCEPT%          DISMAX          ROTATE       ROTACCEPT      ROTACCEPT%          ROTMAX       INTRASWAP       INTACCEPT      INTACCEPT%        TRANSFER      TRANACCEPT     TRANACCEPT%

ETITLE:     STEP           TOTAL        INTRA(B)       INTRA(NB)       INTER(LJ)             LRC     TOTAL_ELECT            REAL           RECIP            SELF            CORR

STITLE:     STEP        TOTALMOL

Printed combined psf to file DME_290_00_K_u_2605_merged.psf
MOVE_0:    10000            2004             847         42.2655          0.4077            2009            1022         50.8711          0.8806               0               0          0.0000            2955             272          9.2047

ENER_0:    10000    -228004.1655      22814.0666          0.0000    -172322.4168     -13592.0518     -64903.7635     -31100.0250      31971.6343   -1751139.4495    1685364.0767

STAT_0:    10000             130

MOVE_1:    10000            3032             272          8.9710

ENER_1:    10000      33899.0906      33899.0906          0.0000          0.0000          0.0000          0.0000          0.0000          0.0000          0.0000          0.0000

STAT_1:    10000             400

Steps/sec. : 4075.6821
MOVE_0:    20000            4063            1879         46.2466          0.3814            4044            2051         50.7171          0.9162               0               0          0.0000            5899             351          5.9502

ENER_0:    20000    -256359.4982      23848.6697          0.0000    -189638.3486     -14657.7008     -75912.1184     -37321.5484      29654.3648   -1818490.9668    1750246.0320

STAT_0:    20000             135

MOVE_1:    20000            5994             356          5.9393

ENER_1:    20000      39412.8893      39412.8893          0.0000          0.0000          0.0000          0.0000          0.0000          0.0000          0.0000          0.0000

STAT_1:    20000             395

Steps/sec. : 4535.9190
MOVE_0:    30000            6091            2897         47.5620          0.3635            6013            3010         50.0582          0.6591               0               0          0.0000            8921             411          4.6071

ENER_0:    30000    -260181.2975      24265.8663          0.0000    -193347.5498     -14875.6562     -76223.9578     -37662.6000      30065.2275   -1831961.2702    1763334.6849

STAT_0:    30000             136

MOVE_1:    30000            8975             417          4.6462

ENER_1:    30000      43900.4972      43900.4972          0.0000          0.0000          0.0000          0.0000          0.0000          0.0000          0.0000          0.0000

STAT_1:    30000             394

Steps/sec. : 4509.0642
MOVE_0:    40000            8073            3894         48.2349          0.3509            8050            4061         50.4472          0.8832               0               0          0.0000           11887             477          4.0128

ENER_0:    40000    -254092.9720      23910.8021          0.0000    -189517.0870     -14441.3539     -74045.3332     -36342.2795      30277.8176   -1805020.6633    1737039.7920

STAT_0:    40000             134

MOVE_1:    40000           11990             481          4.0117

ENER_1:    40000      45675.2585      45675.2585          0.0000          0.0000          0.0000          0.0000          0.0000          0.0000          0.0000          0.0000

STAT_1:    40000             396

Steps/sec. : 4487.7782
MOVE_0:    50000           10086            4907         48.6516          0.3642           10077            5068         50.2927          0.8170               0               0          0.0000           14825             515          3.4739

ENER_0:    50000    -295570.2357      24137.1395          0.0000    -219902.3682     -16446.3826     -83358.6245     -42624.4995      31591.8746   -1926253.3944    1853927.3949

STAT_0:    50000             143

MOVE_1:    50000           15012             528          3.5172

ENER_1:    50000      46856.4266      46856.4266          0.0000          0.0000          0.0000          0.0000          0.0000          0.0000          0.0000          0.0000

STAT_1:    50000             387

Steps/sec. : 4445.2942
MOVE_0:    60000           12177            5959         48.9365          0.3808           12025            6038         50.2121          0.7609               0               0          0.0000           17818             570          3.1990

ENER_0:    60000    -272301.1555      22338.0806          0.0000    -208041.9141     -15763.5630     -70833.7591     -34110.6179      34198.2487   -1885842.4841    1814921.0941

STAT_0:    60000             140

MOVE_1:    60000           17980             580          3.2258

ENER_1:    60000      48883.1962      48883.1962          0.0000          0.0000          0.0000          0.0000          0.0000          0.0000          0.0000          0.0000

STAT_1:    60000             390

Steps/sec. : 4447.3186
MOVE_0:    70000           14188            6967         49.1049          0.3714           14051            7050         50.1744          0.7148               0               0          0.0000           20837             617          2.9611

ENER_0:    70000    -270382.7386      21137.3471          0.0000    -200525.1715     -15095.2201     -75899.6941     -37834.9435      31385.0084   -1845431.5737    1775981.8146

STAT_0:    70000             137

MOVE_1:    70000           20924             624          2.9822

ENER_1:    70000      50528.5325      50528.5325          0.0000          0.0000          0.0000          0.0000          0.0000          0.0000          0.0000          0.0000

STAT_1:    70000             393

Steps/sec. : 4516.0077
MOVE_0:    80000           16241            7996         49.2334          0.3579           15969            8014         50.1847          0.7297               0               0          0.0000           23850             662          2.7757

ENER_0:    80000    -270692.1817      20933.2545          0.0000    -199499.5722     -15316.3925     -76809.4715     -38132.3940      31083.5896   -1858901.8772    1789141.2101

STAT_0:    80000             138

MOVE_1:    80000           23940             670          2.7987

ENER_1:    80000      51867.8094      51867.8094          0.0000          0.0000          0.0000          0.0000          0.0000          0.0000          0.0000          0.0000

STAT_1:    80000             392

Steps/sec. : 4500.6811
MOVE_0:    90000           18302            9037         49.3771          0.3928           17926            9004         50.2287          0.7966               0               0          0.0000           26871             722          2.6869

ENER_0:    90000    -278892.7564      24096.9899          0.0000    -207869.8067     -15539.1735     -79580.7661     -40435.0660      31183.3278   -1872372.1806    1802043.1527

STAT_0:    90000             139

MOVE_1:    90000           26901             731          2.7174

ENER_1:    90000      53360.7803      53360.7803          0.0000          0.0000          0.0000          0.0000          0.0000          0.0000          0.0000          0.0000

STAT_1:    90000             391

Steps/sec. : 4498.4279
MOVE_0:   100000           20311           10036         49.4116          0.3794           19951           10023         50.2381          0.7969               0               0          0.0000           29904             771          2.5783

ENER_0:   100000    -251546.6243      21735.2750          0.0000    -185330.5051     -13801.9645     -74149.4297     -36573.3148      28956.3695   -1764609.7530    1698077.2686

STAT_0:   100000             131

MOVE_1:   100000           29834             772          2.5877

ENER_1:   100000      54133.2877      54133.2877          0.0000          0.0000          0.0000          0.0000          0.0000          0.0000          0.0000          0.0000

STAT_1:   100000             399

Steps/sec. : 4495.3557
MOVE_0:   110000           22336           11050         49.4717          0.3810           21906           11015         50.2830          0.8849               0               0          0.0000           32886             819          2.4904

ENER_0:   110000    -277326.9030      19429.2507          0.0000    -202598.8127     -15316.3925     -78840.9485     -39163.5544      29801.3937   -1858901.8772    1789423.0894

STAT_0:   110000             138

MOVE_1:   110000           32872             827          2.5158

ENER_1:   110000      55261.2292      55261.2292          0.0000          0.0000          0.0000          0.0000          0.0000          0.0000          0.0000          0.0000

STAT_1:   110000             392

Steps/sec. : 4485.9423
MOVE_0:   120000           24326           12028         49.4450          0.3134           23907           12005         50.2154          0.7200               0               0          0.0000           35829             872          2.4338

ENER_0:   120000    -286787.4084      21243.8446          0.0000    -208975.5054     -15989.5610     -83066.1866     -43268.1659      31107.0516   -1899312.7875    1828407.7152

STAT_0:   120000             141

MOVE_1:   120000           35938             883          2.4570

ENER_1:   120000      57154.3158      57154.3158          0.0000          0.0000          0.0000          0.0000          0.0000          0.0000          0.0000          0.0000

STAT_1:   120000             389

Steps/sec. : 4422.1570
MOVE_0:   130000           26337           13041         49.5159          0.3201           25826           12966         50.2052          0.7016               0               0          0.0000           38876             916          2.3562

ENER_0:   130000    -296539.6556      23045.5132          0.0000    -216818.3003     -16909.6384     -85857.2301     -44177.3449      30791.9487   -1953194.0014    1880722.1674

STAT_0:   130000             145

MOVE_1:   130000           38961             931          2.3896

ENER_1:   130000      56143.6842      56143.6842          0.0000          0.0000          0.0000          0.0000          0.0000          0.0000          0.0000          0.0000

STAT_1:   130000             385

Steps/sec. : 4395.6236
MOVE_0:   140000           28271           14006         49.5419          0.3130           27841           13975         50.1958          0.6807               0               0          0.0000           41880             970          2.3161

ENER_0:   140000    -307228.8497      21962.2188          0.0000    -221751.0458     -16909.6384     -90530.3844     -46505.6446      28497.9095   -1953194.0014    1880671.3520

STAT_0:   140000             145

MOVE_1:   140000           42008             985          2.3448

ENER_1:   140000      53733.0706      53733.0706          0.0000          0.0000          0.0000          0.0000          0.0000          0.0000          0.0000          0.0000

STAT_1:   140000             385

Steps/sec. : 4375.7260
MOVE_0:   150000           30227           14993         49.6013          0.3337           29955           15036         50.1953          0.6944               0               0          0.0000           44834             987          2.2015

ENER_0:   150000    -308953.9744      20485.3582          0.0000    -227231.8196     -17379.3282     -84828.1848     -42031.5541      30478.0244   -1980134.6083    1906859.9531

STAT_0:   150000             147

MOVE_1:   150000           44984            1004          2.2319

ENER_1:   150000      54277.1830      54277.1830          0.0000          0.0000          0.0000          0.0000          0.0000          0.0000          0.0000          0.0000

STAT_1:   150000             383

Steps/sec. : 4696.1874
MOVE_0:   160000           32194           15975         49.6210          0.3309           32037           16072         50.1670          0.6431               0               0          0.0000           47765            1015          2.1250

ENER_0:   160000    -303067.0176      21367.6667          0.0000    -221830.0074     -16909.6384     -85695.0386     -42399.1060      29110.0079   -1953194.0014    1880788.0608

STAT_0:   160000             145

MOVE_1:   160000           48004            1030          2.1457

ENER_1:   160000      56524.5664      56524.5664          0.0000          0.0000          0.0000          0.0000          0.0000          0.0000          0.0000          0.0000

STAT_1:   160000             385

Steps/sec. : 5358.4251
MOVE_0:   170000           34175           16961         49.6298          0.3090           34034           17089         50.2116          0.7674               0               0          0.0000           50737            1053          2.0754

ENER_0:   170000    -304438.0499      18747.3669          0.0000    -223074.6304     -16677.2062     -83433.5802     -42815.5506      31159.4990   -1939723.6979    1867946.1693

STAT_0:   170000             144

MOVE_1:   170000           51054            1067          2.0899

ENER_1:   170000      55823.8633      55823.8633          0.0000          0.0000          0.0000          0.0000          0.0000          0.0000          0.0000          0.0000

STAT_1:   170000             386

Steps/sec. : 5501.6516
MOVE_0:   180000           36287           18039         49.7120          0.3710           35996           18077         50.2195          0.7833               0               0          0.0000           53664            1079          2.0107

ENER_0:   180000    -285966.4724      18831.3867          0.0000    -211560.7747     -16446.3826     -76790.7018     -39481.8092      33977.6851   -1926253.3944    1854966.8167

STAT_0:   180000             143

MOVE_1:   180000           54053            1092          2.0202

ENER_1:   180000      55292.8769      55292.8769          0.0000          0.0000          0.0000          0.0000          0.0000          0.0000          0.0000          0.0000

STAT_1:   180000             387

Steps/sec. : 5578.6358
MOVE_0:   190000           38255           19014         49.7033          0.3275           38082           19124         50.2180          0.7821               0               0          0.0000           56672            1129          1.9922

ENER_0:   190000    -283055.1591      19620.4795          0.0000    -210499.8685     -15989.5610     -76186.2090     -37385.6306      31510.4253   -1899312.7875    1829001.7838

STAT_0:   190000             141

MOVE_1:   190000           56991            1140          2.0003

ENER_1:   190000      54317.7285      54317.7285          0.0000          0.0000          0.0000          0.0000          0.0000          0.0000          0.0000          0.0000

STAT_1:   190000             389

Steps/sec. : 5613.2815
MOVE_0:   200000           40270           20048         49.7840          0.3839           40032           20105         50.2223          0.8004               0               0          0.0000           59696            1164          1.9499

ENER_0:   200000    -277552.7715      20413.9010          0.0000    -201895.2303     -15989.5610     -80081.8812     -39863.1430      30160.4232   -1899312.7875    1828933.6261

STAT_0:   200000             141

MOVE_1:   200000           60002            1175          1.9583

ENER_1:   200000      53919.3679      53919.3679          0.0000          0.0000          0.0000          0.0000          0.0000          0.0000          0.0000          0.0000

STAT_1:   200000             389

Steps/sec. : 5614.5679
MOVE_0:   210000           42258           21055         49.8249          0.4293           42036           21107         50.2117          0.7794               0               0          0.0000           62684            1214          1.9367

ENER_0:   210000    -254683.9875      20314.2106          0.0000    -190060.5230     -14441.3539     -70496.3212     -35245.7827      31314.1867   -1805020.6633    1738455.9381

STAT_0:   210000             134

MOVE_1:   210000           63022            1218          1.9327

ENER_1:   210000      56187.7349      56187.7349          0.0000          0.0000          0.0000          0.0000          0.0000          0.0000          0.0000          0.0000

STAT_1:   210000             396

Steps/sec. : 5640.3551
MOVE_0:   220000           44159           21996         49.8109          0.3750           44054           22125         50.2225          0.7886               0               0          0.0000           65690            1301          1.9805

ENER_0:   220000    -250877.7648      20627.6610          0.0000    -188361.8144     -14441.3539     -68702.2574     -35014.2692      32866.4505   -1805020.6633    1738466.2245

STAT_0:   220000             134

MOVE_1:   220000           66097            1305          1.9744

ENER_1:   220000      57345.9655      57345.9655          0.0000          0.0000          0.0000          0.0000          0.0000          0.0000          0.0000          0.0000

STAT_1:   220000             396

Steps/sec. : 5701.6799
MOVE_0:   230000           46111           22983         49.8428          0.4131           45989           23108         50.2468          0.8869               0               0          0.0000           68706            1373          1.9984

ENER_0:   230000    -260120.0362      20135.7190          0.0000    -196476.0978     -14657.7008     -69121.9566     -32726.7751      30554.7394   -1818490.9668    1751541.0458

STAT_0:   230000             135

MOVE_1:   230000           69194            1378          1.9915

ENER_1:   230000      60651.3403      60651.3403          0.0000          0.0000          0.0000          0.0000          0.0000          0.0000          0.0000          0.0000

STAT_1:   230000             395

Steps/sec. : 5703.0560
MOVE_0:   240000           48170           24002         49.8277          0.3614           47976           24084         50.2001          0.7204               0               0          0.0000           71637            1428          1.9934

ENER_0:   240000    -255050.3759      19975.3295          0.0000    -189581.3371     -14657.7008     -70786.6675     -35215.7878      31398.9965   -1818490.9668    1751521.0905

STAT_0:   240000             135

MOVE_1:   240000           72217            1433          1.9843

ENER_1:   240000      58342.5599      58342.5599          0.0000          0.0000          0.0000          0.0000          0.0000          0.0000          0.0000          0.0000

STAT_1:   240000             395

Steps/sec. : 5709.4599
MOVE_0:   250000           50169           25005         49.8415          0.3598           49919           25069         50.2194          0.7892               0               0          0.0000           74670            1518          2.0329

ENER_0:   250000    -252003.7031      19745.9924          0.0000    -192440.1254     -14657.7008     -64651.8694     -31644.1010      34117.2150   -1818490.9668    1751365.9834

STAT_0:   250000             135

MOVE_1:   250000           75242            1523          2.0241

ENER_1:   250000      58277.8511      58277.8511          0.0000          0.0000          0.0000          0.0000          0.0000          0.0000          0.0000          0.0000

STAT_1:   250000             395

Steps/sec. : 5704.4646
MOVE_0:   260000           52145           25987         49.8360          0.3220           51976           26109         50.2328          0.8721               0               0          0.0000           77652            1573          2.0257

ENER_0:   260000    -277972.2150      22186.5670          0.0000    -203835.0386     -15989.5610     -80334.1824     -39541.3128      29537.5619   -1899312.7875    1828982.3561

STAT_0:   260000             141

MOVE_1:   260000           78227            1584          2.0249

ENER_1:   260000      62410.3755      62410.3755          0.0000          0.0000          0.0000          0.0000          0.0000          0.0000          0.0000          0.0000

STAT_1:   260000             389

Steps/sec. : 5562.3103
MOVE_0:   270000           54049           26947         49.8566          0.3336           54019           27121         50.2064          0.7726               0               0          0.0000           80647            1631          2.0224

ENER_0:   270000    -257434.3015      20547.3570          0.0000    -191204.1475     -14657.7008     -72119.8102     -37231.5786      32533.8177   -1818490.9668    1751068.9175

STAT_0:   270000             135

MOVE_1:   270000           81285            1636          2.0127

ENER_1:   270000      62266.2928      62266.2928          0.0000          0.0000          0.0000          0.0000          0.0000          0.0000          0.0000          0.0000

STAT_1:   270000             395

Steps/sec. : 5607.1919
MOVE_0:   280000           56094           27986         49.8913          0.3635           56017           28122         50.2026          0.7475               0               0          0.0000           83695            1682          2.0097

ENER_0:   280000    -297359.0237      21904.4592          0.0000    -217772.6725     -16909.6384     -84581.1722     -42961.7042      30655.8369   -1953194.0014    1880918.6965

STAT_0:   280000             145

MOVE_1:   280000           84194            1697          2.0156

ENER_1:   280000      58238.1266      58238.1266          0.0000          0.0000          0.0000          0.0000          0.0000          0.0000          0.0000          0.0000

STAT_1:   280000             385

Steps/sec. : 5676.8442
MOVE_0:   290000           58105           28989         49.8907          0.3470           58011           29119         50.1957          0.7299               0               0          0.0000           86673            1707          1.9695

ENER_0:   290000    -283514.2539      20243.9146          0.0000    -209429.4788     -15763.5630     -78565.1267     -38556.3907      29628.7280   -1885842.4841    1816205.0200

STAT_0:   290000             140

MOVE_1:   290000           87211            1717          1.9688

ENER_1:   290000      60295.4070      60295.4070          0.0000          0.0000          0.0000          0.0000          0.0000          0.0000          0.0000          0.0000

STAT_1:   290000             390

Steps/sec. : 5616.9996
MOVE_0:   300000           60136           30004         49.8936          0.3309           60047           30146         50.2040          0.7915               0               0          0.0000           89645            1743          1.9443

ENER_0:   300000    -285508.8768      19175.3705          0.0000    -210991.5287     -16217.1676     -77475.5511     -38299.9628      31749.8143   -1912783.0910    1841857.6884

STAT_0:   300000             142

MOVE_1:   300000           90172            1755          1.9463

ENER_1:   300000      57361.0073      57361.0073          0.0000          0.0000          0.0000          0.0000          0.0000          0.0000          0.0000          0.0000

STAT_1:   300000             388

Steps/sec. : 5648.6645
MOVE_0:   310000           62137           31011         49.9075          0.3425           62058           31150         50.1950          0.7658               0               0          0.0000           92561            1788          1.9317

ENER_0:   310000    -292968.0380      19184.4271          0.0000    -219819.7270     -16677.2062     -75655.5319     -36945.4149      33613.6593   -1939723.6979    1867399.9217

STAT_0:   310000             144

MOVE_1:   310000           93244            1802          1.9326

ENER_1:   310000      58809.7576      58809.7576          0.0000          0.0000          0.0000          0.0000          0.0000          0.0000          0.0000          0.0000

STAT_1:   310000             386

Steps/sec. : 5632.1495
MOVE_0:   320000           64136           32006         49.9033          0.3275           64095           32177         50.2020          0.8078               0               0          0.0000           95557            1832          1.9172

ENER_0:   320000    -288988.0707      18869.3764          0.0000    -210431.5558     -16217.1676     -81208.7237     -41632.8141      31733.7422   -1912783.0910    1841473.4391

STAT_0:   320000             142

MOVE_1:   320000           96212            1844          1.9166

ENER_1:   320000      62095.7246      62095.7246          0.0000          0.0000          0.0000          0.0000          0.0000          0.0000          0.0000          0.0000

STAT_1:   320000             388

Steps/sec. : 5592.2935
MOVE_0:   330000           66090           32979         49.9001          0.2973           66141           33180         50.1656          0.6352               0               0          0.0000           98561            1878          1.9054

ENER_0:   330000    -277761.3113      19542.5890          0.0000    -204805.1974     -15763.5630     -76735.1399     -39379.7309      32951.4068   -1885842.4841    1815535.6682

STAT_0:   330000             140

MOVE_1:   330000           99208            1888          1.9031

ENER_1:   330000      62774.1033      62774.1033          0.0000          0.0000          0.0000          0.0000          0.0000          0.0000          0.0000          0.0000

STAT_1:   330000             390

Steps/sec. : 5568.2673
MOVE_0:   340000           68113           34017         49.9420          0.3616           68152           34204         50.1878          0.7495               0               0          0.0000          101474            1928          1.9000

ENER_0:   340000    -303577.5457      21719.8830          0.0000    -224747.8456     -17143.6790     -83405.9040     -41602.4557      31360.9581   -1966664.3048    1893499.8984

STAT_0:   340000             146

MOVE_1:   340000          102261            1944          1.9010

ENER_1:   340000      65021.2236      65021.2236          0.0000          0.0000          0.0000          0.0000          0.0000          0.0000          0.0000          0.0000

STAT_1:   340000             384

Steps/sec. : 5585.3782
MOVE_0:   350000           70062           34987         49.9372          0.3224           70133           35210         50.2046          0.8308               0               0          0.0000          104511            1961          1.8764

ENER_0:   350000    -295476.0136      20957.9376          0.0000    -218243.5696     -16909.6384     -81280.7432     -41399.7963      32684.2488   -1953194.0014    1880628.8056

STAT_0:   350000             145

MOVE_1:   350000          105294            1976          1.8767

ENER_1:   350000      65841.6172      65841.6172          0.0000          0.0000          0.0000          0.0000          0.0000          0.0000          0.0000          0.0000

STAT_1:   350000             385

Steps/sec. : 5519.5103
MOVE_0:   360000           72036           35979         49.9459          0.3184           72103           36189         50.1907          0.7423               0               0          0.0000          107524            2036          1.8935

ENER_0:   360000    -280182.2464      20277.3870          0.0000    -205045.5390     -15539.1735     -79874.9209     -40437.9772      29769.1873   -1872372.1806    1803166.0496

STAT_0:   360000             139

MOVE_1:   360000          108337            2045          1.8876

ENER_1:   360000      67027.8727      67027.8727          0.0000          0.0000          0.0000          0.0000          0.0000          0.0000          0.0000          0.0000

STAT_1:   360000             391

Steps/sec. : 5659.2578
MOVE_0:   370000           73996           36968         49.9595          0.3353           74197           37254         50.2096          0.7742               0               0          0.0000          110476            2086          1.8882

ENER_0:   370000    -269524.0929      20109.9029          0.0000    -195764.3008     -15316.3925     -78553.3025     -40036.2056      30364.2809   -1858901.8772    1790020.4993

STAT_0:   370000             138

MOVE_1:   370000          111331            2094          1.8809

ENER_1:   370000      68693.4744      68693.4744          0.0000          0.0000          0.0000          0.0000          0.0000          0.0000          0.0000          0.0000

STAT_1:   370000             392

Steps/sec. : 5690.8788
MOVE_0:   380000           76006           37972         49.9592          0.3208           76173           38252         50.2173          0.8149               0               0          0.0000          113526            2136          1.8815

ENER_0:   380000    -278906.4479      18884.3662          0.0000    -206087.5662     -15539.1735     -76164.0744     -37652.6464      30498.7744   -1872372.1806    1803361.9782

STAT_0:   380000             139

MOVE_1:   380000          114295            2145          1.8767

ENER_1:   380000      67322.3582      67322.3582          0.0000          0.0000          0.0000          0.0000          0.0000          0.0000          0.0000          0.0000

STAT_1:   380000             391

Steps/sec. : 5701.0948
MOVE_0:   390000           78069           39016         49.9763          0.3380           78138           39220         50.1932          0.6755               0               0          0.0000          116544            2186          1.8757

ENER_0:   390000    -271559.5471      18384.1173          0.0000    -196412.1837     -15095.2201     -78436.2606     -40046.0170      29515.3353   -1845431.5737    1777525.9948

STAT_0:   390000             137

MOVE_1:   390000          117249            2193          1.8704

ENER_1:   390000      67643.0153      67643.0153          0.0000          0.0000          0.0000          0.0000          0.0000          0.0000          0.0000          0.0000

STAT_1:   390000             393

Steps/sec. : 5660.4118
MOVE_0:   400000           80085           40035         49.9906          0.3727           80143           40238         50.2078          0.7527               0               0          0.0000          119536            2235          1.8697

ENER_0:   400000    -281109.0420      19708.1777          0.0000    -205796.3385     -15989.5610     -79031.3202     -39607.1014      30453.6478   -1899312.7875    1829434.9208

STAT_0:   400000             141

MOVE_1:   400000          120236            2246          1.8680

ENER_1:   400000      62619.7207      62619.7207          0.0000          0.0000          0.0000          0.0000          0.0000          0.0000          0.0000          0.0000

STAT_1:   400000             389

Steps/sec. : 5685.3648
MOVE_0:   410000           82111           41039         49.9799          0.3338           82118           41220         50.1961          0.7008               0               0          0.0000          122518            2299          1.8765

ENER_0:   410000    -275172.9102      20163.1422          0.0000    -198912.8419     -15539.1735     -80884.0370     -40784.6276      29119.2006   -1872372.1806    1803153.5706

STAT_0:   410000             139

MOVE_1:   410000          123253            2308          1.8726

ENER_1:   410000      62068.0461      62068.0461          0.0000          0.0000          0.0000          0.0000          0.0000          0.0000          0.0000          0.0000

STAT_1:   410000             391

Steps/sec. : 5755.7039
MOVE_0:   420000           84134           42066         49.9988          0.3715           84090           42213         50.1998          0.7161               0               0          0.0000          125576            2363          1.8817

ENER_0:   420000    -260376.3089      20859.6828          0.0000    -189836.3981     -14441.3539     -76958.2396     -38035.1021      28334.0606   -1805020.6633    1737763.4652

STAT_0:   420000             134

MOVE_1:   420000          126200            2367          1.8756

ENER_1:   420000      63002.2850      63002.2850          0.0000          0.0000          0.0000          0.0000          0.0000          0.0000          0.0000          0.0000

STAT_1:   420000             396

Steps/sec. : 5709.1833
MOVE_0:   430000           86098           43045         49.9954          0.3528           86127           43247         50.2131          0.7844               0               0          0.0000          128570            2411          1.8752

ENER_0:   430000    -267394.5183      20987.5500          0.0000    -192048.0568     -14875.6562     -81458.3553     -40957.8321      27567.2554   -1831961.2702    1763893.4917

STAT_0:   430000             136

MOVE_1:   430000          129205            2417          1.8707

ENER_1:   430000      62480.8792      62480.8792          0.0000          0.0000          0.0000          0.0000          0.0000          0.0000          0.0000          0.0000

STAT_1:   430000             394

Steps/sec. : 5748.5568
MOVE_0:   440000           88109           44058         50.0040          0.3517           88084           44223         50.2055          0.7005               0               0          0.0000          131567            2455          1.8660

ENER_0:   440000    -282360.7015      21196.0726          0.0000    -204883.1782     -15763.5630     -82910.0328     -42440.4327      29909.4646   -1885842.4841    1815463.4194

STAT_0:   440000             140

MOVE_1:   440000          132240            2465          1.8640

ENER_1:   440000      59083.8832      59083.8832          0.0000          0.0000          0.0000          0.0000          0.0000          0.0000          0.0000          0.0000

STAT_1:   440000             390

Steps/sec. : 5624.2212
MOVE_0:   450000           90013           45024         50.0194          0.3840           90106           45251         50.2197          0.8286               0               0          0.0000          134539            2512          1.8671

ENER_0:   450000    -257663.2395      20937.1382          0.0000    -189760.9357     -14875.6562     -73963.7857     -37364.2218      31131.2529   -1831961.2702    1764230.4535

STAT_0:   450000             136

MOVE_1:   450000          135342            2518          1.8605

ENER_1:   450000      55426.6609      55426.6609          0.0000          0.0000          0.0000          0.0000          0.0000          0.0000          0.0000          0.0000

STAT_1:   450000             394

Steps/sec. : 5643.7264
MOVE_0:   460000           92003           46023         50.0234          0.3918           92092           46250         50.2215          0.8521               0               0          0.0000          137603            2607          1.8946

ENER_0:   460000    -253550.9743      20507.4307          0.0000    -187436.3710     -14657.7008     -71964.3332     -35968.2318      31606.6657   -1818490.9668    1750888.1998

STAT_0:   460000             135

MOVE_1:   460000          138302            2612          1.8886

ENER_1:   460000      56096.2294      56096.2294          0.0000          0.0000          0.0000          0.0000          0.0000          0.0000          0.0000          0.0000

STAT_1:   460000             395

Steps/sec. : 5896.0736
MOVE_0:   470000           93925           46978         50.0165          0.3588           94136           47255         50.1986          0.6887               0               0          0.0000          140665            2703          1.9216

ENER_0:   470000    -275004.4310      22078.8625          0.0000    -203796.8800     -15989.5610     -77296.8524     -37895.2845      30788.6652   -1899312.7875    1829122.5543

STAT_0:   470000             141

MOVE_1:   470000          141274            2714          1.9211

ENER_1:   470000      57995.2868      57995.2868          0.0000          0.0000          0.0000          0.0000          0.0000          0.0000          0.0000          0.0000

STAT_1:   470000             389

Steps/sec. : 5809.7987
MOVE_0:   480000           95947           47996         50.0235          0.3412           96158           48288         50.2174          0.8092               0               0          0.0000          143619            2751          1.9155

ENER_0:   480000    -277085.3030      21196.4854          0.0000    -206420.8439     -15539.1735     -76321.7710     -38440.0431      31409.5630   -1872372.1806    1803080.8897

STAT_0:   480000             139

MOVE_1:   480000          144276            2760          1.9130

ENER_1:   480000      57801.8517      57801.8517          0.0000          0.0000          0.0000          0.0000          0.0000          0.0000          0.0000          0.0000

STAT_1:   480000             391

Steps/sec. : 5652.5919
MOVE_0:   490000           97894           48986         50.0398          0.4013           98228           49318         50.2077          0.7602               0               0          0.0000          146624            2798          1.9083

ENER_0:   490000    -259480.6504      22136.5700          0.0000    -193678.6615     -14875.6562     -73062.9027     -37530.0808      32445.3488   -1831961.2702    1763983.0996

STAT_0:   490000             136

MOVE_1:   490000          147254            2804          1.9042

ENER_1:   490000      53211.4234      53211.4234          0.0000          0.0000          0.0000          0.0000          0.0000          0.0000          0.0000          0.0000

STAT_1:   490000             394

Steps/sec. : 5703.7121
MOVE_0:   500000           99909           49998         50.0435          0.3981          100176           50301         50.2126          0.7982               0               0          0.0000          149618            2847          1.9028

ENER_0:   500000    -298913.2919      22612.1688          0.0000    -220225.4574     -16909.6384     -84390.3650     -43563.0009      31631.4446   -1953194.0014    1880735.1926

STAT_0:   500000             145

MOVE_1:   500000          150297            2862          1.9042

ENER_1:   500000      51313.7274      51313.7274          0.0000          0.0000          0.0000          0.0000          0.0000          0.0000          0.0000          0.0000

STAT_1:   500000             385

Steps/sec. : 5520.1655
MOVE_0:   510000          101911           50990         50.0339          0.3484          102168           51305         50.2163          0.8224               0               0          0.0000          152676            2905          1.9027

ENER_0:   510000    -302416.5228      23357.7931          0.0000    -225166.0932     -16446.3826     -84161.8401     -42925.6280      30141.9222   -1926253.3944    1854875.2602

STAT_0:   510000             143

MOVE_1:   510000          153245            2918          1.9041

ENER_1:   510000      55166.9507      55166.9507          0.0000          0.0000          0.0000          0.0000          0.0000          0.0000          0.0000          0.0000

STAT_1:   510000             387

Steps/sec. : 1605.5970
MOVE_0:   520000          103958           52023         50.0423          0.3649          104155           52293         50.2069          0.7714               0               0          0.0000          155639            2949          1.8948

ENER_0:   520000    -290484.9027      21807.7236          0.0000    -214478.7336     -16446.3826     -81367.5101     -41354.8912      31668.4879   -1926253.3944    1854572.2877

STAT_0:   520000             143

MOVE_1:   520000          156248            2962          1.8957

ENER_1:   520000      54847.4665      54847.4665          0.0000          0.0000          0.0000          0.0000          0.0000          0.0000          0.0000          0.0000

STAT_1:   520000             387

Steps/sec. : 1635.2869
MOVE_0:   530000          105958           53029         50.0472          0.3841          106086           53271         50.2149          0.8249               0               0          0.0000          158760            2984          1.8796

ENER_0:   530000    -249724.4610      21452.9733          0.0000    -187064.3476     -14441.3539     -69671.7328     -34987.5245      32581.1789   -1805020.6633    1737755.2761

STAT_0:   530000             134

MOVE_1:   530000          159196            2988          1.8769

ENER_1:   530000      54843.7997      54843.7997          0.0000          0.0000          0.0000          0.0000          0.0000          0.0000          0.0000          0.0000

STAT_1:   530000             396

Steps/sec. : 1620.1187
MOVE_0:   540000          107973           54050         50.0588          0.4161          108111           54281         50.2086          0.7863               0               0          0.0000          161682            3025          1.8710

ENER_0:   540000    -281473.2169      24721.0817          0.0000    -206964.2412     -15539.1735     -83690.8839     -41520.3925      28203.0549   -1872372.1806    1801998.6343

STAT_0:   540000             139

MOVE_1:   540000          162234            3034          1.8701

ENER_1:   540000      54635.9608      54635.9608          0.0000          0.0000          0.0000          0.0000          0.0000          0.0000          0.0000          0.0000

STAT_1:   540000             391

Steps/sec. : 1582.0600
MOVE_0:   550000          110074           55081         50.0400          0.3336          110052           55261         50.2135          0.8617               0               0          0.0000          164576            3062          1.8605

ENER_0:   550000    -270484.1132      24735.1157          0.0000    -201973.2464     -15095.2201     -78150.7624     -39821.1417      30644.0139   -1845431.5737    1776457.9390

STAT_0:   550000             137

MOVE_1:   550000          165298            3069          1.8566

ENER_1:   550000      55722.2691      55722.2691          0.0000          0.0000          0.0000          0.0000          0.0000          0.0000          0.0000          0.0000

STAT_1:   550000             393

Steps/sec. : 1613.0492
MOVE_0:   560000          112114           56122         50.0580          0.4053          112078           56263         50.1999          0.7371               0               0          0.0000          167535            3118          1.8611

ENER_0:   560000    -263568.5545      21277.3207          0.0000    -196145.5954     -14875.6562     -73824.6236     -36461.8498      30566.6700   -1831961.2702    1764031.8265

STAT_0:   560000             136

MOVE_1:   560000          168273            3124          1.8565

ENER_1:   560000      54239.7527      54239.7527          0.0000          0.0000          0.0000          0.0000          0.0000          0.0000          0.0000          0.0000

STAT_1:   560000             394

Steps/sec. : 1707.2888
MOVE_0:   570000          114118           57114         50.0482          0.3662          114051           57263         50.2082          0.8241               0               0          0.0000          170536            3187          1.8688

ENER_0:   570000    -258643.2829      19907.8372          0.0000    -189789.1105     -14441.3539     -74320.6556     -35904.1612      28850.7411   -1805020.6633    1737753.4277

STAT_0:   570000             134

MOVE_1:   570000          171295            3191          1.8629

ENER_1:   570000      51918.2723      51918.2723          0.0000          0.0000          0.0000          0.0000          0.0000          0.0000          0.0000          0.0000

STAT_1:   570000             396

Steps/sec. : 1654.2999
MOVE_0:   580000          116058           58096         50.0577          0.3916          116013           58239         50.2004          0.7783               0               0          0.0000          173616            3240          1.8662

ENER_0:   580000    -285018.3459      20435.9699          0.0000    -206250.1449     -15763.5630     -83440.6079     -42619.8902      29242.3077   -1885842.4841    1815779.4586

STAT_0:   580000             140

MOVE_1:   580000          174313            3250          1.8645

ENER_1:   580000      49875.3854      49875.3854          0.0000          0.0000          0.0000          0.0000          0.0000          0.0000          0.0000          0.0000

STAT_1:   580000             390

Steps/sec. : 1756.8203
MOVE_0:   590000          118083           59094         50.0445          0.3239          118016           59238         50.1949          0.7445               0               0          0.0000          176623            3268          1.8503

ENER_0:   590000    -297894.0561      21863.9961          0.0000    -222876.4420     -16909.6384     -79971.9720     -41192.4217      33876.8115   -1953194.0014    1880537.6395

STAT_0:   590000             145

MOVE_1:   590000          177278            3283          1.8519

ENER_1:   590000      49642.8195      49642.8195          0.0000          0.0000          0.0000          0.0000          0.0000          0.0000          0.0000          0.0000

STAT_1:   590000             385

Steps/sec. : 1548.6109
MOVE_0:   600000          120097           60110         50.0512          0.3376          120021           60244         50.1945          0.7490               0               0          0.0000          179654            3318          1.8469

ENER_0:   600000    -295791.1970      24989.0314          0.0000    -217508.5074     -16909.6384     -86362.0826     -43351.0705      29624.4838   -1953194.0014    1880558.5054

STAT_0:   600000             145

MOVE_1:   600000          180228            3333          1.8493

ENER_1:   600000      50183.7786      50183.7786          0.0000          0.0000          0.0000          0.0000          0.0000          0.0000          0.0000          0.0000

STAT_1:   600000             385

Steps/sec. : 1617.4124
MOVE_0:   610000          122081           61117         50.0627          0.3743          122005           61241         50.1955          0.7726               0               0          0.0000          182747            3358          1.8375

ENER_0:   610000    -277037.0491      26204.0157          0.0000    -203547.2703     -15763.5630     -83930.2315     -42485.7049      28609.8444   -1885842.4841    1815788.1131

STAT_0:   610000             140

MOVE_1:   610000          183167            3368          1.8388

ENER_1:   610000      48807.5467      48807.5467          0.0000          0.0000          0.0000          0.0000          0.0000          0.0000          0.0000          0.0000

STAT_1:   610000             390

Steps/sec. : 1607.5380
MOVE_0:   620000          124069           62111         50.0617          0.3583          124013           62249         50.1955          0.7635               0               0          0.0000          185810            3393          1.8261

ENER_0:   620000    -296691.9551      26446.0332          0.0000    -219508.3578     -16677.2062     -86952.4243     -43771.2611      29037.2383   -1939723.6979    1867505.2964

STAT_0:   620000             144

MOVE_1:   620000          186108            3407          1.8307

ENER_1:   620000      49807.4811      49807.4811          0.0000          0.0000          0.0000          0.0000          0.0000          0.0000          0.0000          0.0000

STAT_1:   620000             386

Steps/sec. : 1531.9303
MOVE_0:   630000          126051           63109         50.0662          0.3697          126065           63278         50.1947          0.7607               0               0          0.0000          188804            3441          1.8225

ENER_0:   630000    -273229.1779      22648.2015          0.0000    -200746.5118     -15763.5630     -79367.3046     -40694.9581      31564.6368   -1885842.4841    1815605.5007

STAT_0:   630000             140

MOVE_1:   630000          189080            3451          1.8252

ENER_1:   630000      49907.3348      49907.3348          0.0000          0.0000          0.0000          0.0000          0.0000          0.0000          0.0000          0.0000

STAT_1:   630000             390

Steps/sec. : 1670.7237
MOVE_0:   640000          128053           64108         50.0636          0.3574          128056           64281         50.1976          0.7885               0               0          0.0000          191822            3501          1.8251

ENER_0:   640000    -285098.0504      24194.1547          0.0000    -216187.0556     -16217.1676     -76887.9820     -38916.2874      32902.4766   -1912783.0910    1841908.9198

STAT_0:   640000             142

MOVE_1:   640000          192069            3513          1.8290

ENER_1:   640000      52214.5977      52214.5977          0.0000          0.0000          0.0000          0.0000          0.0000          0.0000          0.0000          0.0000

STAT_1:   640000             388

Steps/sec. : 1659.5197
MOVE_0:   650000          130048           65106         50.0631          0.3509          130112           65297         50.1852          0.6885               0               0          0.0000          194820            3529          1.8114

ENER_0:   650000    -289983.0092      25136.5503          0.0000    -219503.5794     -16446.3826     -79169.5975     -40616.4784      32756.1027   -1926253.3944    1854944.1726

STAT_0:   650000             143

MOVE_1:   650000          195020            3542          1.8162

ENER_1:   650000      52059.6481      52059.6481          0.0000          0.0000          0.0000          0.0000          0.0000          0.0000          0.0000          0.0000

STAT_1:   650000             387

Steps/sec. : 1566.7130
MOVE_0:   660000          131990           66065         50.0530          0.3009          132173           66334         50.1873          0.7186               0               0          0.0000          197816            3573          1.8062

ENER_0:   660000    -286227.5972      25410.1904          0.0000    -212654.7087     -16677.2062     -82305.8726     -42615.3039      32276.9261   -1939723.6979    1867756.2031

STAT_0:   660000             144

MOVE_1:   660000          198021            3587          1.8114

ENER_1:   660000      54005.0710      54005.0710          0.0000          0.0000          0.0000          0.0000          0.0000          0.0000          0.0000          0.0000

STAT_1:   660000             386

Steps/sec. : 1639.7268
MOVE_0:   670000          134017           67105         50.0720          0.3708          134138           67325         50.1908          0.7509               0               0          0.0000          200839            3635          1.8099

ENER_0:   670000    -268347.0084      22758.8898          0.0000    -199627.0467     -15316.3925     -76162.4589     -39111.0240      31671.5999   -1858901.8772    1790178.8423

STAT_0:   670000             138

MOVE_1:   670000          201006            3643          1.8124

ENER_1:   670000      55862.5135      55862.5135          0.0000          0.0000          0.0000          0.0000          0.0000          0.0000          0.0000          0.0000

STAT_1:   670000             392

Steps/sec. : 1630.4590
MOVE_0:   680000          136081           68134         50.0687          0.3541          136117           68323         50.1943          0.7625               0               0          0.0000          203722            3707          1.8196

ENER_0:   680000    -278543.4533      24127.9125          0.0000    -207620.7474     -15763.5630     -79287.0555     -41316.5636      31895.9601   -1885842.4841    1815976.0321

STAT_0:   680000             140

MOVE_1:   680000          204080            3717          1.8213

ENER_1:   680000      56897.2489      56897.2489          0.0000          0.0000          0.0000          0.0000          0.0000          0.0000          0.0000          0.0000

STAT_1:   680000             390

Steps/sec. : 1582.4270
MOVE_0:   690000          138071           69134         50.0713          0.3568          138146           69347         50.1983          0.7865               0               0          0.0000          206730            3749          1.8135

ENER_0:   690000    -273659.0621      21968.1369          0.0000    -206014.9630     -15316.3925     -74295.8435     -37143.2528      32065.0102   -1858901.8772    1789684.2763

STAT_0:   690000             138

MOVE_1:   690000          207053            3757          1.8145

ENER_1:   690000      56419.9343      56419.9343          0.0000          0.0000          0.0000          0.0000          0.0000          0.0000          0.0000          0.0000

STAT_1:   690000             392

Steps/sec. : 1592.1830
MOVE_0:   700000          140102           70149         50.0699          0.3387          140140           70346         50.1969          0.7880               0               0          0.0000          209719            3812          1.8177

ENER_0:   700000    -260661.1361      20087.5424          0.0000    -193416.5219     -14441.3539     -72890.8027     -35818.3838      30034.6814   -1805020.6633    1737913.5630

STAT_0:   700000             134

MOVE_1:   700000          210039            3816          1.8168

ENER_1:   700000      59297.0261      59297.0261          0.0000          0.0000          0.0000          0.0000          0.0000          0.0000          0.0000          0.0000

STAT_1:   700000             396

Steps/sec. : 1553.6394
MOVE_0:   710000          142098           71162         50.0795          0.3707          142163           71361         50.1966          0.8085               0               0          0.0000          212754            3855          1.8120

ENER_0:   710000    -277158.9027      21777.2015          0.0000    -210629.0570     -15763.5630     -72543.4842     -36593.3355      34359.2749   -1885842.4841    1815533.0605

STAT_0:   710000             140

MOVE_1:   710000          212985            3865          1.8147

ENER_1:   710000      56253.2089      56253.2089          0.0000          0.0000          0.0000          0.0000          0.0000          0.0000          0.0000          0.0000

STAT_1:   710000             390

Steps/sec. : 1550.2573
MOVE_0:   720000          144149           72208         50.0926          0.4110          144087           72317         50.1898          0.7612               0               0          0.0000          215768            3914          1.8140

ENER_0:   720000    -275324.3164      22007.5857          0.0000    -210189.4224     -15539.1735     -71603.3062     -34982.1212      32767.8279   -1872372.1806    1802983.1677

STAT_0:   720000             139

MOVE_1:   720000          215996            3923          1.8162

ENER_1:   720000      57324.8932      57324.8932          0.0000          0.0000          0.0000          0.0000          0.0000          0.0000          0.0000          0.0000

STAT_1:   720000             391

Steps/sec. : 1638.8591
MOVE_0:   730000          146156           73213         50.0924          0.4084          146053           73298         50.1859          0.7190               0               0          0.0000          218803            3970          1.8144

ENER_0:   730000    -280095.4159      20904.1065          0.0000    -205269.3232     -15763.5630     -79966.6362     -39973.9553      29963.2344   -1885842.4841    1815886.5688

STAT_0:   730000             140

MOVE_1:   730000          218988            3980          1.8175

ENER_1:   730000      57138.4940      57138.4940          0.0000          0.0000          0.0000          0.0000          0.0000          0.0000          0.0000          0.0000

STAT_1:   730000             390

Steps/sec. : 1611.4649
MOVE_0:   740000          148126           74185         50.0824          0.3181          148079           74319         50.1888          0.7079               0               0          0.0000          221827            4018          1.8113

ENER_0:   740000    -299374.3077      21089.4568          0.0000    -221455.6280     -17143.6790     -81864.4575     -40195.0578      31669.5234   -1966664.3048    1893325.3817

STAT_0:   740000             146

MOVE_1:   740000          221968            4034          1.8174

ENER_1:   740000      56613.5634      56613.5634          0.0000          0.0000          0.0000          0.0000          0.0000          0.0000          0.0000          0.0000

STAT_1:   740000             384

Steps/sec. : 1541.6870
MOVE_0:   750000          150155           75195         50.0783          0.2923          150103           75339         50.1915          0.7148               0               0          0.0000          224804            4053          1.8029

ENER_0:   750000    -302045.4631      22231.9409          0.0000    -225025.6444     -16909.6384     -82342.1211     -41030.5035      31339.5044   -1953194.0014    1880542.8794

STAT_0:   750000             145

MOVE_1:   750000          224938            4068          1.8085

ENER_1:   750000      57582.3432      57582.3432          0.0000          0.0000          0.0000          0.0000          0.0000          0.0000          0.0000          0.0000

STAT_1:   750000             385

Steps/sec. : 1540.8922
MOVE_0:   760000          152180           76238         50.0973          0.3732          152002           76306         50.2007          0.8145               0               0          0.0000          227846            4120          1.8082

ENER_0:   760000    -257345.7163      22217.9940          0.0000    -193312.0610     -14657.7008     -71593.9486     -35582.1472      31893.3978   -1818490.9668    1750585.7676

STAT_0:   760000             135

MOVE_1:   760000          227972            4125          1.8094

ENER_1:   760000      59680.3324      59680.3324          0.0000          0.0000          0.0000          0.0000          0.0000          0.0000          0.0000          0.0000

STAT_1:   760000             395

Steps/sec. : 1582.9717
MOVE_0:   770000          154121           77214         50.0996          0.3888          153992           77303         50.1994          0.7526               0               0          0.0000          230798            4179          1.8107

ENER_0:   770000    -274794.3630      23863.5344          0.0000    -204498.9635     -15539.1735     -78619.7604     -38984.1282      30170.5990   -1872372.1806    1802565.9494

STAT_0:   770000             139

MOVE_1:   770000          231089            4188          1.8123

ENER_1:   770000      58548.3575      58548.3575          0.0000          0.0000          0.0000          0.0000          0.0000          0.0000          0.0000          0.0000

STAT_1:   770000             391

Steps/sec. : 1591.4318
MOVE_0:   780000          156191           78259         50.1047          0.4107          156024           78323         50.1993          0.7924               0               0          0.0000          233760            4215          1.8031

ENER_0:   780000    -287877.9705      24504.5754          0.0000    -213217.4773     -16217.1676     -82947.9010     -42738.3820      30955.1605   -1912783.0910    1841618.4114

STAT_0:   780000             142

MOVE_1:   780000          234025            4227          1.8062

ENER_1:   780000      60454.3169      60454.3169          0.0000          0.0000          0.0000          0.0000          0.0000          0.0000          0.0000          0.0000

STAT_1:   780000             388

Steps/sec. : 1632.9362
MOVE_0:   790000          158142           79229         50.0999          0.3772          158050           79333         50.1949          0.7129               0               0          0.0000          236725            4251          1.7958

ENER_0:   790000    -298179.5434      23743.7257          0.0000    -219794.1180     -16677.2062     -85451.9448     -44437.7986      31039.4761   -1939723.6979    1867670.0756

STAT_0:   790000             144

MOVE_1:   790000          237083            4265          1.7989

ENER_1:   790000      57037.7463      57037.7463          0.0000          0.0000          0.0000          0.0000          0.0000          0.0000          0.0000          0.0000

STAT_1:   790000             386

Steps/sec. : 1594.0221
MOVE_0:   800000          160117           80201         50.0890          0.3132          160028           80332         50.1987          0.7776               0               0          0.0000          239737            4276          1.7836

ENER_0:   800000    -293735.5077      25152.2858          0.0000    -222728.6163     -16909.6384     -79249.5388     -40652.7098      34462.4211   -1953194.0014    1880134.7512

STAT_0:   800000             145

MOVE_1:   800000          240118            4291          1.7870

ENER_1:   800000      54738.9806      54738.9806          0.0000          0.0000          0.0000          0.0000          0.0000          0.0000          0.0000          0.0000

STAT_1:   800000             385

Steps/sec. : 1649.6456
MOVE_0:   810000          162153           81254         50.1095          0.4133          161990           81305         50.1914          0.7031               0               0          0.0000          242713            4310          1.7758

ENER_0:   810000    -281177.5550      25759.0688          0.0000    -211623.1879     -15989.5610     -79323.8750     -39934.5434      31639.4278   -1899312.7875    1828284.0282

STAT_0:   810000             141

MOVE_1:   810000          243144            4321          1.7771

ENER_1:   810000      55205.0394      55205.0394          0.0000          0.0000          0.0000          0.0000          0.0000          0.0000          0.0000          0.0000

STAT_1:   810000             389

Steps/sec. : 1714.9467
MOVE_0:   820000          164049           82195         50.1039          0.3753          163993           82322         50.1985          0.7796               0               0          0.0000          245769            4370          1.7781

ENER_0:   820000    -255284.9114      21571.1318          0.0000    -192869.8420     -14441.3539     -69544.8472     -35223.0937      32967.9520   -1805020.6633    1737730.9578

STAT_0:   820000             134

MOVE_1:   820000          246189            4374          1.7767

ENER_1:   820000      62167.0113      62167.0113          0.0000          0.0000          0.0000          0.0000          0.0000          0.0000          0.0000          0.0000

STAT_1:   820000             396

Steps/sec. : 1661.1519
MOVE_0:   830000          166059           83216         50.1123          0.4233          166016           83341         50.2006          0.7945               0               0          0.0000          248750            4429          1.7805

ENER_0:   830000    -283615.5986      24188.3007          0.0000    -211527.9812     -15763.5630     -80512.3552     -39972.3720      30189.0444   -1885842.4841    1815113.4566

STAT_0:   830000             140

MOVE_1:   830000          249175            4439          1.7815

ENER_1:   830000      60254.6232      60254.6232          0.0000          0.0000          0.0000          0.0000          0.0000          0.0000          0.0000          0.0000

STAT_1:   830000             390

Steps/sec. : 1686.5981
MOVE_0:   840000          168122           84237         50.1047          0.3498          168028           84351         50.2006          0.7977               0               0          0.0000          251731            4474          1.7773

ENER_0:   840000    -272956.2039      23194.5142          0.0000    -205099.1523     -15316.3925     -75735.1733     -38128.1848      31802.6697   -1858901.8772    1789492.2190

STAT_0:   840000             138

MOVE_1:   840000          252119            4482          1.7777

ENER_1:   840000      60418.9031      60418.9031          0.0000          0.0000          0.0000          0.0000          0.0000          0.0000          0.0000          0.0000

STAT_1:   840000             392

Steps/sec. : 1691.1743
MOVE_0:   850000          170156           85254         50.1034          0.3334          169976           85326         50.1989          0.7753               0               0          0.0000          254661            4501          1.7674

ENER_0:   850000    -302651.2132      23545.5326          0.0000    -225064.7175     -16909.6384     -84222.3899     -44691.5429      33400.6376   -1953194.0014    1880262.5167

STAT_0:   850000             145

MOVE_1:   850000          255207            4516          1.7695

ENER_1:   850000      58422.1049      58422.1049          0.0000          0.0000          0.0000          0.0000          0.0000          0.0000          0.0000          0.0000

STAT_1:   850000             385

Steps/sec. : 1737.4078
MOVE_0:   860000          172116           86246         50.1092          0.3578          171943           86313         50.1986          0.7869               0               0          0.0000          257724            4540          1.7616

ENER_0:   860000    -288808.3273      21036.2383          0.0000    -213648.4411     -15763.5630     -80432.5615     -41709.4042      31461.3991   -1885842.4841    1815657.9277

STAT_0:   860000             140

MOVE_1:   860000          258217            4550          1.7621

ENER_1:   860000      56675.2277      56675.2277          0.0000          0.0000          0.0000          0.0000          0.0000          0.0000          0.0000          0.0000

STAT_1:   860000             390

Steps/sec. : 1757.2077
MOVE_0:   870000          174075           87225         50.1077          0.3470          174003           87357         50.2043          0.8738               0               0          0.0000          260715            4593          1.7617

ENER_0:   870000    -286556.7454      20952.8266          0.0000    -207828.0233     -15989.5610     -83691.9876     -43251.4977      30323.1713   -1899312.7875    1828549.1263

STAT_0:   870000             141

MOVE_1:   870000          261207            4604          1.7626

ENER_1:   870000      55212.5121      55212.5121          0.0000          0.0000          0.0000          0.0000          0.0000          0.0000          0.0000          0.0000

STAT_1:   870000             389

Steps/sec. : 1683.2404
MOVE_0:   880000          176037           88217         50.1128          0.3622          175954           88320         50.1949          0.7675               0               0          0.0000          263828            4626          1.7534

ENER_0:   880000    -299566.0899      21938.5010          0.0000    -216035.8171     -16677.2062     -88791.5675     -46799.2561      30139.7009   -1939723.6979    1867591.6855

STAT_0:   880000             144

MOVE_1:   880000          264181            4640          1.7564

ENER_1:   880000      54515.5618      54515.5618          0.0000          0.0000          0.0000          0.0000          0.0000          0.0000          0.0000          0.0000

STAT_1:   880000             386

Steps/sec. : 1660.1109
MOVE_0:   890000          178111           89261         50.1154          0.3655          177982           89331         50.1910          0.7101               0               0          0.0000          266743            4669          1.7504

ENER_0:   890000    -294718.7547      23712.6913          0.0000    -220835.2053     -16677.2062     -80919.0344     -41936.4564      33291.0806   -1939723.6979    1867450.0393

STAT_0:   890000             144

MOVE_1:   890000          267164            4683          1.7529

ENER_1:   890000      55097.5408      55097.5408          0.0000          0.0000          0.0000          0.0000          0.0000          0.0000          0.0000          0.0000

STAT_1:   890000             386

Steps/sec. : 1693.6496
MOVE_0:   900000          180062           90250         50.1216          0.3836          180044           90364         50.1900          0.7076               0               0          0.0000          269703            4714          1.7478

ENER_0:   900000    -266078.3508      20478.0629          0.0000    -193825.1477     -14875.6562     -77855.6099     -41255.1426      31385.6929   -1831961.2702    1763975.1101

STAT_0:   900000             136

MOVE_1:   900000          270191            4720          1.7469

ENER_1:   900000      55700.0242      55700.0242          0.0000          0.0000          0.0000          0.0000          0.0000          0.0000          0.0000          0.0000

STAT_1:   900000             394

Steps/sec. : 1693.3175
MOVE_0:   910000          182158           91300         50.1213          0.3915          181954           91323         50.1902          0.7114               0               0          0.0000          272672            4791          1.7571

ENER_0:   910000    -288524.3974      23493.0569          0.0000    -217636.9053     -16217.1676     -78163.3814     -38521.2326      31790.1616   -1912783.0910    1841350.7807

STAT_0:   910000             142

MOVE_1:   910000          273216            4803          1.7579

ENER_1:   910000      53802.6387      53802.6387          0.0000          0.0000          0.0000          0.0000          0.0000          0.0000          0.0000          0.0000

STAT_1:   910000             388

Steps/sec. : 1739.6841
MOVE_0:   920000          184163           92297         50.1170          0.3313          183914           92322         50.1985          0.8411               0               0          0.0000          275727            4865          1.7644

ENER_0:   920000    -260467.4263      22656.0676          0.0000    -193325.0153     -15095.2201     -74703.2584     -36986.8253      30902.2598   -1845431.5737    1776812.8808

STAT_0:   920000             137

MOVE_1:   920000          276196            4872          1.7640

ENER_1:   920000      51253.0249      51253.0249          0.0000          0.0000          0.0000          0.0000          0.0000          0.0000          0.0000          0.0000

STAT_1:   920000             393

Steps/sec. : 1682.2889
MOVE_0:   930000          186154           93301         50.1203          0.3445          185957           93336         50.1922          0.7736               0               0          0.0000          278641            4925          1.7675

ENER_0:   930000    -274132.3237      24621.9743          0.0000    -205766.7526     -15989.5610     -76997.9844     -39906.9261      33321.8716   -1899312.7875    1828899.8577

STAT_0:   930000             141

MOVE_1:   930000          279248            4936          1.7676

ENER_1:   930000      50521.3691      50521.3691          0.0000          0.0000          0.0000          0.0000          0.0000          0.0000          0.0000          0.0000

STAT_1:   930000             389

Steps/sec. : 1687.9549
MOVE_0:   940000          188157           94320         50.1284          0.3679          187891           94316         50.1972          0.8680               0               0          0.0000          281670            4996          1.7737

ENER_0:   940000    -270852.7991      18138.7088          0.0000    -197876.0564     -15095.2201     -76020.2314     -37274.6828      29442.3835   -1845431.5737    1777243.6416

STAT_0:   940000             137

MOVE_1:   940000          282282            5003          1.7723

ENER_1:   940000      51726.6313      51726.6313          0.0000          0.0000          0.0000          0.0000          0.0000          0.0000          0.0000          0.0000

STAT_1:   940000             393

Steps/sec. : 1759.9350
MOVE_0:   950000          190175           95326         50.1254          0.3414          189859           95302         50.1962          0.8639               0               0          0.0000          284669            5050          1.7740

ENER_0:   950000    -285396.7408      20952.3227          0.0000    -209985.3477     -16217.1676     -80146.5482     -41416.4524      32419.2033   -1912783.0910    1841633.7918

STAT_0:   950000             142

MOVE_1:   950000          285297            5062          1.7743

ENER_1:   950000      54750.9569      54750.9569          0.0000          0.0000          0.0000          0.0000          0.0000          0.0000          0.0000          0.0000

STAT_1:   950000             388

Steps/sec. : 1697.2578
MOVE_0:   960000          192144           96329         50.1338          0.3925          191953           96329         50.1836          0.6754               0               0          0.0000          287612            5100          1.7732

ENER_0:   960000    -274400.4656      20956.0776          0.0000    -204933.5036     -15539.1735     -74883.8662     -37024.8640      31734.9539   -1872372.1806    1802778.2246

STAT_0:   960000             139

MOVE_1:   960000          288291            5109          1.7722

ENER_1:   960000      54908.7695      54908.7695          0.0000          0.0000          0.0000          0.0000          0.0000          0.0000          0.0000          0.0000

STAT_1:   960000             391

Steps/sec. : 1741.8920
MOVE_0:   970000          194138           97333         50.1360          0.3882          193954           97348         50.1913          0.8019               0               0          0.0000          290643            5157          1.7743

ENER_0:   970000    -263321.6960      17403.3221          0.0000    -190318.3741     -14226.6156     -76180.0284     -37095.4007      27242.7662   -1791550.3599    1725222.9660

STAT_0:   970000             133

MOVE_1:   970000          291265            5160          1.7716

ENER_1:   970000      53055.5920      53055.5920          0.0000          0.0000          0.0000          0.0000          0.0000          0.0000          0.0000          0.0000

STAT_1:   970000             397

Steps/sec. : 1772.7051
MOVE_0:   980000          196155           98343         50.1354          0.3766          195882           98302         50.1843          0.7010               0               0          0.0000          293675            5220          1.7775

ENER_0:   980000    -270042.0851      19067.1951          0.0000    -200860.0910     -15316.3925     -72932.7966     -35597.4820      31711.1398   -1858901.8772    1789855.4227

STAT_0:   980000             138

MOVE_1:   980000          294288            5228          1.7765

ENER_1:   980000      52555.7642      52555.7642          0.0000          0.0000          0.0000          0.0000          0.0000          0.0000          0.0000          0.0000

STAT_1:   980000             392

Steps/sec. : 1733.9873
MOVE_0:   990000          198166           99349         50.1342          0.3536          197893           99327         50.1923          0.8471               0               0          0.0000          296660            5268          1.7758

ENER_0:   990000    -284636.2706      17964.1415          0.0000    -209965.0775     -15539.1735     -77096.1611     -38260.5847      30722.7888   -1872372.1806    1802813.8154

STAT_0:   990000             139

MOVE_1:   990000          297281            5277          1.7751

ENER_1:   990000      55217.0244      55217.0244          0.0000          0.0000          0.0000          0.0000          0.0000          0.0000          0.0000          0.0000

STAT_1:   990000             391

Steps/sec. : 1657.0882
MOVE_0:  1000000          200186          100362         50.1344          0.3543          199884          100319         50.1886          0.8050               0               0          0.0000          299605            5338          1.7817

ENER_0:  1000000    -259870.5827      17254.5044          0.0000    -188525.9837     -14441.3539     -74157.7495     -38149.0786      31224.5733   -1805020.6633    1737787.4191

STAT_0:  1000000             134

MOVE_1:  1000000          300325            5342          1.7787

ENER_1:  1000000      57660.9353      57660.9353          0.0000          0.0000          0.0000          0.0000          0.0000          0.0000          0.0000          0.0000

STAT_1:  1000000             396

Simulation Time (total): 399.5445sec.
GOMC Serial Version 1.9
Completed at: Sat Apr 22 21:52:42 2017
On hostname: potoff13.eng.wayne.edu
