GOMC Serial Version 1.9
Started at: Fri Dec  9 11:32:22 2016
On hostname: potoff39.eng.wayne.edu

Total number of CPUs: 4
Total number of CPUs available: 4
Model name: Intel(R) Core(TM) i5-2500K CPU @ 3.30GHz

System name: Linux
Release: 2.6.32-642.4.2.el6.x86_64
Version: #1 SMP Tue Aug 23 19:58:13 UTC 2016
Kernel Architecture: x86_64
Total Ram: 7856.3MB
Used Ram: 5538.9MB
Working in the current directory /home3/soroush/Desktop/validation/GOMC_Serial-development_1.90/GOMC_Examples-master/GCMC/DME/run2a_bridge

------------------------------------------------------
This code was compiled to support the grand canonical ensemble.
------------------------------------------------------

REMINDER: EXOTIC force field has been selected!
Temperature of system has been set to 290.0 K 
Ewald Summation method will be used to calculate electrostatic interactions.
Ewald Tolerance is set to: 0.0
By default intra box swap frequency has been set to zero
Warning: 1-4 electro static scaling has been set to zero!
Warning: By default, Fourier terms of ewald method will be cached!
Reading from Exotic Parameter File file: ./../../../common/Par_DME_Exotic.inp

Finished reading Exotic Parameter File file: ./../../../common/Par_DME_Exotic.inp

Reading from Box 1 PDB coordinate file file: ./STEP3_START_DME_BOX_0.pdb

Finished reading Box 1 PDB coordinate file file: ./STEP3_START_DME_BOX_0.pdb

Reading from Box 2 PDB coordinate file file: ./STEP3_START_DME_BOX_Res.pdb

Finished reading Box 2 PDB coordinate file file: ./STEP3_START_DME_BOX_Res.pdb

Random number seed: 732449827

Molecules in PSF:

Molecule Kind: DME
Idx	name	type	charge	mass
0	C1	CT3	0.3	15.0
1	O1	OT	-0.5	16.0
2	C2	CT3	0.3	15.0

Bonds:
[0 1] [1 2] 

Angles:
[0 1 2] 

Dihedrals:

REMINDER! 1-3 and 1-4 Interaction is OFF

box: 0, RecipVectors: 823, kmax: 8

########################## INITIAL SIMULATION ENERGY ##########################
ETITLE_BOX_0    TOTAL           INTRA(B)        INTRA(N)        INTER(LJ)       LRC             TOTAL_ELECT     REAL            RECIP           SELF            CORR            

ENERGY_BOX_0    714712321.4748  4847.6120       0.0000          714740405.6643  -13592.0518     -19339.7496     -19040.1540     52508.4725      -1566266.7389   1513458.6707    

ETITLE_BOX_1    TOTAL           INTRA(B)        INTRA(N)        INTER(LJ)       LRC             TOTAL_ELECT     REAL            RECIP           SELF            CORR            

ENERGY_BOX_1    14953.1600      14953.1600      0.0000          0.0000          0.0000          0.0000          0.0000          0.0000          0.0000          -0.0000         

###############################################################################

############################# STARTING SIMULATION #############################
MTITLE_BOX_0    DISTRY          DISACCEPT       DISACCEPT%      DISMAX          ROTATE          ROTACCEPT       ROTACCEPT%      ROTMAX          INTRASWAP       INTACCEPT       INTACCEPT%      TRANSFER        TRANACCEPT      TRANACCEPT%     STEP            

ETITLE_BOX_0    TOTAL           INTRA(B)        INTRA(N)        INTER(LJ)       LRC             TOTAL_ELECT     REAL            RECIP           SELF            CORR            
STITLE_BOX_0    TOTALMOL        

MTITLE_BOX_1    TRANSFER        TRANACCEPT      TRANACCEPT%     STEP            

ETITLE_BOX_1    TOTAL           INTRA(B)        INTRA(N)        INTER(LJ)       LRC             TOTAL_ELECT     REAL            RECIP           SELF            CORR            
STITLE_BOX_1    TOTALMOL        

Printed combined psf to file DME_290_00_K_u_2605.psf
MOVE_BOX_0      2010            863             42.9353         0.3634          1977            1011            51.1381         0.9241          0               0               0.0000          3043            206             6.7696          10000           

ENERGY_BOX_0    -236710.4903    18820.2222      0.0000          -175507.7630    -13592.0518     -66430.8978     -39470.1731     19831.1135      -1566266.7389   1519474.9007    

STAT_BOX_0      130             

MOVE_BOX_1      2970            206             6.9360          10000           

ENERGY_BOX_1    35928.9136      35928.9136      0.0000          0.0000          0.0000          0.0000          0.0000          0.0000          0.0000          0.0000          

STAT_BOX_1      400             

Steps/sec. : 3617.7669
MOVE_BOX_0      3925            1821            46.3949         0.3607          4041            2023            50.0619         0.7474          0               0               0.0000          6075            285             4.6914          20000           

ENERGY_BOX_0    -253051.4613    19353.4619      0.0000          -184699.7731    -14226.6156     -73478.5345     -45215.6180     19065.6420      -1602411.3559   1555082.7974    

STAT_BOX_0      133             

MOVE_BOX_1      5959            288             4.8330          20000           

ENERGY_BOX_1    40922.8702      40922.8702      0.0000          0.0000          0.0000          0.0000          0.0000          0.0000          0.0000          0.0000          

STAT_BOX_1      397             

Steps/sec. : 3481.1876
MOVE_BOX_0      5964            2848            47.7532         0.3704          6042            3029            50.1324         0.7590          0               0               0.0000          9116            347             3.8065          30000           

ENERGY_BOX_0    -236583.2732    16233.3714      0.0000          -171941.9927    -13177.0518     -67697.6001     -41034.3850     18733.1285      -1542170.3275   1496773.9839    

STAT_BOX_0      128             

MOVE_BOX_1      8878            345             3.8860          30000           

ENERGY_BOX_1    43774.9682      43774.9682      0.0000          0.0000          0.0000          0.0000          0.0000          0.0000          0.0000          0.0000          

STAT_BOX_1      402             

Steps/sec. : 3456.7090
MOVE_BOX_0      7880            3800            48.2234         0.3376          8056            4047            50.2358         0.8393          0               0               0.0000          12172           440             3.6149          40000           

ENERGY_BOX_0    -273438.3959    16919.5272      0.0000          -198670.7548    -15539.1735     -76147.9947     -46781.4317     19611.0259      -1674700.5900   1625723.0011    

STAT_BOX_0      139             

MOVE_BOX_1      11892           449             3.7756          40000           

ENERGY_BOX_1    43246.9620      43246.9620      0.0000          0.0000          0.0000          0.0000          0.0000          0.0000          0.0000          0.0000          

STAT_BOX_1      391             

Steps/sec. : 3443.3531
MOVE_BOX_0      9855            4794            48.6454         0.3442          10088           5068            50.2379         0.8666          0               0               0.0000          15181           505             3.3265          50000           

ENERGY_BOX_0    -274269.6465    19582.1205      0.0000          -200956.5692    -15316.3925     -77578.8053     -47318.7057     18328.2158      -1662652.3843   1614064.0689    

STAT_BOX_0      138             

MOVE_BOX_1      14876           513             3.4485          50000           

ENERGY_BOX_1    45189.6840      45189.6840      0.0000          0.0000          0.0000          0.0000          0.0000          0.0000          0.0000          0.0000          

STAT_BOX_1      392             

Steps/sec. : 3216.2074
MOVE_BOX_0      11905           5836            49.0214         0.4072          12105           6082            50.2437         0.8763          0               0               0.0000          18185           550             3.0245          60000           

ENERGY_BOX_0    -270866.3241    20890.8070      0.0000          -198566.1637    -15095.2201     -78095.7473     -47906.2925     17742.7606      -1650604.1786   1602671.9632    

STAT_BOX_0      137             

MOVE_BOX_1      17805           557             3.1283          60000           

ENERGY_BOX_1    49445.9595      49445.9595      0.0000          0.0000          0.0000          0.0000          0.0000          0.0000          0.0000          0.0000          

STAT_BOX_1      393             

Steps/sec. : 3386.8903
MOVE_BOX_0      13883           6817            49.1032         0.3683          14102           7071            50.1418         0.7669          0               0               0.0000          21169           621             2.9335          70000           

ENERGY_BOX_0    -256695.2424    21097.4235      0.0000          -191649.6720    -14657.7008     -71485.2930     -44189.9240     19840.8580      -1626507.7673   1579371.5402    

STAT_BOX_0      135             

MOVE_BOX_1      20846           626             3.0030          70000           

ENERGY_BOX_1    52065.7672      52065.7672      0.0000          0.0000          0.0000          0.0000          0.0000          0.0000          0.0000          0.0000          

STAT_BOX_1      395             

Steps/sec. : 3388.3878
MOVE_BOX_0      15873           7810            49.2030         0.3479          16047           8054            50.1901         0.8336          0               0               0.0000          24184           692             2.8614          80000           

ENERGY_BOX_0    -247206.7383    22758.8838      0.0000          -181510.7586    -14657.7008     -73797.1626     -45937.4218     19345.7016      -1626507.7673   1579302.3249    

STAT_BOX_0      135             

MOVE_BOX_1      23896           697             2.9168          80000           

ENERGY_BOX_1    53919.7744      53919.7744      0.0000          0.0000          0.0000          0.0000          0.0000          0.0000          0.0000          0.0000          

STAT_BOX_1      395             

Steps/sec. : 3379.7634
MOVE_BOX_0      17828           8804            49.3830         0.3684          18098           9071            50.1216         0.7176          0               0               0.0000          27219           766             2.8142          90000           

ENERGY_BOX_0    -262522.5193    22664.0400      0.0000          -199867.7408    -15095.2201     -70223.5984     -42529.6741     20147.6613      -1650604.1786   1602762.5930    

STAT_BOX_0      137             

MOVE_BOX_1      26855           773             2.8784          90000           

ENERGY_BOX_1    55825.8546      55825.8546      0.0000          0.0000          0.0000          0.0000          0.0000          0.0000          0.0000          0.0000          

STAT_BOX_1      393             

Steps/sec. : 3411.3906
MOVE_BOX_0      19824           9816            49.5157         0.4086          20146           10102           50.1439         0.7046          0               0               0.0000          30202           847             2.8045          100000          

ENERGY_BOX_0    -232829.7058    23194.6240      0.0000          -174610.4030    -13592.0518     -67821.8750     -40693.9586     18215.0754      -1566266.7389   1520923.7470    

STAT_BOX_0      130             

MOVE_BOX_1      29828           847             2.8396          100000          

ENERGY_BOX_1    54303.9258      54303.9258      0.0000          0.0000          0.0000          0.0000          0.0000          0.0000          0.0000          0.0000          

STAT_BOX_1      400             

Steps/sec. : 3443.6271
MOVE_BOX_0      21765           10786           49.5566         0.3776          22124           11110           50.2170         0.8309          0               0               0.0000          33188           937             2.8233          110000          

ENERGY_BOX_0    -263677.3969    25405.3405      0.0000          -203569.7671    -15095.2201     -70417.7502     -42681.3062     20297.8939      -1650604.1786   1602569.8408    

STAT_BOX_0      137             

MOVE_BOX_1      32923           944             2.8673          110000          

ENERGY_BOX_1    51103.2834      51103.2834      0.0000          0.0000          0.0000          0.0000          0.0000          0.0000          0.0000          0.0000          

STAT_BOX_1      393             

Steps/sec. : 3440.7250
MOVE_BOX_0      23726           11761           49.5701         0.3540          24157           12130           50.2132         0.8261          0               0               0.0000          36218           1002            2.7666          120000          

ENERGY_BOX_0    -264644.2418    25927.9937      0.0000          -197158.6607    -15095.2201     -78318.3547     -46498.7678     16109.3704      -1650604.1786   1602675.2213    

STAT_BOX_0      137             

MOVE_BOX_1      35899           1009            2.8107          120000          

ENERGY_BOX_1    49651.5442      49651.5442      0.0000          0.0000          0.0000          0.0000          0.0000          0.0000          0.0000          0.0000          

STAT_BOX_1      393             

Steps/sec. : 3393.7903
MOVE_BOX_0      25734           12773           49.6347         0.3579          26147           13114           50.1549         0.7071          0               0               0.0000          39172           1059            2.7035          130000          

ENERGY_BOX_0    -275775.6861    24972.6525      0.0000          -205175.7469    -15763.5630     -79809.0287     -49986.3025     19161.5056      -1686748.7957   1637764.5639    

STAT_BOX_0      140             

MOVE_BOX_1      38947           1069            2.7448          130000          

ENERGY_BOX_1    48100.8787      48100.8787      0.0000          0.0000          0.0000          0.0000          0.0000          0.0000          0.0000          0.0000          

STAT_BOX_1      390             

Steps/sec. : 3336.0166
MOVE_BOX_0      27729           13774           49.6736         0.3593          28241           14178           50.2036         0.7996          0               0               0.0000          42107           1106            2.6266          140000          

ENERGY_BOX_0    -268358.4771    24218.2067      0.0000          -199919.7933    -15316.3925     -77340.4979     -47331.5515     18357.8487      -1662652.3843   1614285.5892    

STAT_BOX_0      138             

MOVE_BOX_1      41923           1114            2.6573          140000          

ENERGY_BOX_1    52214.7975      52214.7975      0.0000          0.0000          0.0000          0.0000          0.0000          0.0000          0.0000          0.0000          

STAT_BOX_1      392             

Steps/sec. : 3399.6366
MOVE_BOX_0      29766           14812           49.7615         0.4145          30257           15190           50.2033         0.8180          0               0               0.0000          45098           1159            2.5700          150000          

ENERGY_BOX_0    -261960.0128    23109.4989      0.0000          -194695.7897    -15095.2201     -75278.5018     -45532.8195     18059.1265      -1650604.1786   1602799.3698    

STAT_BOX_0      137             

MOVE_BOX_1      44879           1166            2.5981          150000          

ENERGY_BOX_1    53882.7282      53882.7282      0.0000          0.0000          0.0000          0.0000          0.0000          0.0000          0.0000          0.0000          

STAT_BOX_1      393             

Steps/sec. : 3385.3103
MOVE_BOX_0      31747           15795           49.7527         0.3802          32250           16195           50.2171         0.8676          0               0               0.0000          48094           1219            2.5346          160000          

ENERGY_BOX_0    -257401.7670    20214.4559      0.0000          -192639.4397    -14657.7008     -70319.0825     -42739.6305     19451.5504      -1626507.7673   1579476.7649    

STAT_BOX_0      135             

MOVE_BOX_1      47909           1224            2.5548          160000          

ENERGY_BOX_1    55178.7689      55178.7689      0.0000          0.0000          0.0000          0.0000          0.0000          0.0000          0.0000          0.0000          

STAT_BOX_1      395             

Steps/sec. : 3450.5878
MOVE_BOX_0      33736           16786           49.7569         0.3295          34286           17216           50.2129         0.8532          0               0               0.0000          51051           1284            2.5151          170000          

ENERGY_BOX_0    -265213.7467    21174.2112      0.0000          -197021.5760    -15316.3925     -74049.9894     -43629.0292     17944.7860      -1662652.3843   1614286.6381    

STAT_BOX_0      138             

MOVE_BOX_1      50927           1292            2.5370          170000          

ENERGY_BOX_1    55941.5946      55941.5946      0.0000          0.0000          0.0000          0.0000          0.0000          0.0000          0.0000          0.0000          

STAT_BOX_1      392             

Steps/sec. : 3452.8395
MOVE_BOX_0      35692           17776           49.8039         0.3628          36385           18244           50.1415         0.7006          0               0               0.0000          54031           1338            2.4764          180000          

ENERGY_BOX_0    -278871.7902    18648.6252      0.0000          -205958.8429    -15539.1735     -76022.3990     -46060.2073     18733.7593      -1674700.5900   1626004.6389    

STAT_BOX_0      139             

MOVE_BOX_1      53892           1347            2.4994          180000          

ENERGY_BOX_1    58834.7931      58834.7931      0.0000          0.0000          0.0000          0.0000          0.0000          0.0000          0.0000          0.0000          

STAT_BOX_1      391             

Steps/sec. : 3434.3866
MOVE_BOX_0      37726           18810           49.8595         0.4098          38320           19231           50.1853         0.7909          0               0               0.0000          57017           1375            2.4116          190000          

ENERGY_BOX_0    -300800.1988    18205.6623      0.0000          -215329.0830    -16446.3826     -87230.3955     -53565.2140     16309.7233      -1722893.4127   1672918.5079    

STAT_BOX_0      143             

MOVE_BOX_1      56937           1388            2.4378          190000          

ENERGY_BOX_1    55523.0644      55523.0644      0.0000          0.0000          0.0000          0.0000          0.0000          0.0000          0.0000          0.0000          

STAT_BOX_1      387             

Steps/sec. : 3381.4013
MOVE_BOX_0      39660           19767           49.8411         0.3588          40334           20222           50.1364         0.6715          0               0               0.0000          60069           1403            2.3356          200000          

ENERGY_BOX_0    -306846.3427    17476.2422      0.0000          -221074.8576    -16677.2062     -86570.5210     -54201.3950     17808.5385      -1734941.6184   1684763.9539    

STAT_BOX_0      144             

MOVE_BOX_1      59937           1417            2.3641          200000          

ENERGY_BOX_1    56363.0405      56363.0405      0.0000          0.0000          0.0000          0.0000          0.0000          0.0000          0.0000          0.0000          

STAT_BOX_1      386             

Steps/sec. : 3303.3018
MOVE_BOX_0      41632           20756           49.8559         0.3530          42407           21284           50.1898         0.8396          0               0               0.0000          63080           1439            2.2812          210000          

ENERGY_BOX_0    -298706.9667    17933.5143      0.0000          -217231.9227    -16217.1676     -83191.3907     -51536.3565     17952.7124      -1710845.2071   1661237.4604    

STAT_BOX_0      142             

MOVE_BOX_1      62881           1451            2.3075          210000          

ENERGY_BOX_1    59354.5074      59354.5074      0.0000          0.0000          0.0000          0.0000          0.0000          0.0000          0.0000          0.0000          

STAT_BOX_1      388             

Steps/sec. : 3325.3382
MOVE_BOX_0      43619           21742           49.8453         0.3200          44386           22268           50.1690         0.7443          0               0               0.0000          66092           1479            2.2378          220000          

ENERGY_BOX_0    -293406.0083    17533.2927      0.0000          -212931.1321    -16446.3826     -81561.7863     -50424.3295     18848.2061      -1722893.4127   1672907.7500    

STAT_BOX_0      143             

MOVE_BOX_1      65903           1492            2.2639          220000          

ENERGY_BOX_1    60361.6608      60361.6608      0.0000          0.0000          0.0000          0.0000          0.0000          0.0000          0.0000          0.0000          

STAT_BOX_1      387             

Steps/sec. : 3395.7758
MOVE_BOX_0      45592           22752           49.9035         0.3750          46377           23264           50.1628         0.7370          0               0               0.0000          69098           1523            2.2041          230000          

ENERGY_BOX_0    -289966.1120    19802.8593      0.0000          -212307.8948    -16677.2062     -80783.8703     -50711.8089     20207.8139      -1734941.6184   1684661.7431    

STAT_BOX_0      144             

MOVE_BOX_1      68933           1537            2.2297          230000          

ENERGY_BOX_1    57882.4206      57882.4206      0.0000          0.0000          0.0000          0.0000          0.0000          0.0000          0.0000          0.0000          

STAT_BOX_1      386             

Steps/sec. : 3365.4396
MOVE_BOX_0      47626           23774           49.9181         0.3844          48405           24275           50.1498         0.6953          0               0               0.0000          72048           1573            2.1833          240000          

ENERGY_BOX_0    -283297.1971    20436.1178      0.0000          -205015.4179    -15763.5630     -82954.3340     -51885.1089     17912.7244      -1686748.7957   1637766.8462    

STAT_BOX_0      140             

MOVE_BOX_1      71921           1583            2.2010          240000          

ENERGY_BOX_1    57468.1333      57468.1333      0.0000          0.0000          0.0000          0.0000          0.0000          0.0000          0.0000          0.0000          

STAT_BOX_1      390             

Steps/sec. : 3373.1126
MOVE_BOX_0      49624           24768           49.9113         0.3567          50352           25254           50.1549         0.7087          0               0               0.0000          75100           1612            2.1465          250000          

ENERGY_BOX_0    -293267.9962    19514.3142      0.0000          -210715.5610    -16217.1676     -85849.5818     -55472.2479     19209.4466      -1710845.2071   1661258.4265    

STAT_BOX_0      142             

MOVE_BOX_1      74924           1624            2.1675          250000          

ENERGY_BOX_1    54537.5252      54537.5252      0.0000          0.0000          0.0000          0.0000          0.0000          0.0000          0.0000          0.0000          

STAT_BOX_1      388             

Steps/sec. : 3293.9714
MOVE_BOX_0      51690           25809           49.9304         0.3500          52317           26234           50.1443         0.6750          0               0               0.0000          78068           1665            2.1328          260000          

ENERGY_BOX_0    -281084.6965    20721.1722      0.0000          -208638.1931    -16217.1676     -76950.5081     -47964.4815     20500.9663      -1710845.2071   1661358.2142    

STAT_BOX_0      142             

MOVE_BOX_1      77925           1677            2.1521          260000          

ENERGY_BOX_1    56395.4740      56395.4740      0.0000          0.0000          0.0000          0.0000          0.0000          0.0000          0.0000          0.0000          

STAT_BOX_1      388             

Steps/sec. : 3392.3454
MOVE_BOX_0      53699           26828           49.9600         0.3905          54303           27253           50.1869         0.8403          0               0               0.0000          81107           1715            2.1145          270000          

ENERGY_BOX_0    -272664.9965    22797.4145      0.0000          -199041.7649    -15316.3925     -81104.2536     -49884.9336     16888.7582      -1662652.3843   1614544.3061    

STAT_BOX_0      138             

MOVE_BOX_1      80891           1723            2.1300          270000          

ENERGY_BOX_1    57013.1841      57013.1841      0.0000          0.0000          0.0000          0.0000          0.0000          0.0000          0.0000          0.0000          

STAT_BOX_1      392             

Steps/sec. : 3401.7922
MOVE_BOX_0      55736           27840           49.9498         0.3544          56319           28253           50.1660         0.7446          0               0               0.0000          84072           1748            2.0792          280000          

ENERGY_BOX_0    -277010.2745    21753.9191      0.0000          -205560.3776    -15539.1735     -77664.6425     -47247.2036     17986.0268      -1674700.5900   1626297.1242    

STAT_BOX_0      139             

MOVE_BOX_1      83873           1757            2.0948          280000          

ENERGY_BOX_1    57600.4249      57600.4249      0.0000          0.0000          0.0000          0.0000          0.0000          0.0000          0.0000          0.0000          

STAT_BOX_1      391             

Steps/sec. : 3421.8238
MOVE_BOX_0      57738           28831           49.9342         0.3224          58341           29277           50.1825         0.7794          0               0               0.0000          87105           1807            2.0745          290000          

ENERGY_BOX_0    -271695.5003    21685.5065      0.0000          -199988.2419    -15095.2201     -78297.5448     -47289.6117     17008.4825      -1650604.1786   1602587.7630    

STAT_BOX_0      137             

MOVE_BOX_1      86816           1814            2.0895          290000          

ENERGY_BOX_1    59988.3554      59988.3554      0.0000          0.0000          0.0000          0.0000          0.0000          0.0000          0.0000          0.0000          

STAT_BOX_1      393             

Steps/sec. : 3419.7423
MOVE_BOX_0      59702           29825           49.9565         0.3431          60301           30256           50.1750         0.6946          0               0               0.0000          90113           1869            2.0741          300000          

ENERGY_BOX_0    -276240.9612    22396.4228      0.0000          -209308.4800    -15763.5630     -73565.3410     -44875.4571     20508.5335      -1686748.7957   1637550.3782    

STAT_BOX_0      140             

MOVE_BOX_1      89884           1879            2.0905          300000          

ENERGY_BOX_1    55655.2150      55655.2150      0.0000          0.0000          0.0000          0.0000          0.0000          0.0000          0.0000          0.0000          

STAT_BOX_1      390             

Steps/sec. : 3421.6706
MOVE_BOX_0      61706           30828           49.9595         0.3383          62311           31278           50.1966         0.7905          0               0               0.0000          93100           1923            2.0655          310000          

ENERGY_BOX_0    -293943.1181    20564.8080      0.0000          -216928.5748    -16677.2062     -80902.1450     -52329.2762     21939.3661      -1734941.6184   1684429.3835    

STAT_BOX_0      144             

MOVE_BOX_1      92883           1937            2.0854          310000          

ENERGY_BOX_1    58548.1922      58548.1922      0.0000          0.0000          0.0000          0.0000          0.0000          0.0000          0.0000          0.0000          

STAT_BOX_1      386             

Steps/sec. : 3400.4505
MOVE_BOX_0      63696           31826           49.9655         0.3347          64283           32257           50.1797         0.7252          0               0               0.0000          96148           1972            2.0510          320000          

ENERGY_BOX_0    -285289.0589    20783.9827      0.0000          -208444.4577    -15763.5630     -81865.0209     -50641.4943     17809.0564      -1686748.7957   1637716.2127    

STAT_BOX_0      140             

MOVE_BOX_1      95873           1982            2.0673          320000          

ENERGY_BOX_1    59325.5589      59325.5589      0.0000          0.0000          0.0000          0.0000          0.0000          0.0000          0.0000          0.0000          

STAT_BOX_1      390             

Steps/sec. : 3396.8395
MOVE_BOX_0      65725           32826           49.9445         0.2852          66270           33248           50.1705         0.6851          0               0               0.0000          99087           2012            2.0305          330000          

ENERGY_BOX_0    -290442.2229    20491.0494      0.0000          -210352.6290    -16446.3826     -84134.2607     -53361.4233     19225.7095      -1722893.4127   1672894.8658    

STAT_BOX_0      143             

MOVE_BOX_1      98918           2025            2.0472          330000          

ENERGY_BOX_1    59380.4890      59380.4890      0.0000          0.0000          0.0000          0.0000          0.0000          0.0000          0.0000          0.0000          

STAT_BOX_1      387             

Steps/sec. : 3354.7916
MOVE_BOX_0      67768           33875           49.9867         0.3384          68193           34223           50.1855         0.7689          0               0               0.0000          102052          2074            2.0323          340000          

ENERGY_BOX_0    -268342.5169    20394.6794      0.0000          -199179.6952    -15316.3925     -74241.1086     -44952.1164     19044.7924      -1662652.3843   1614318.5997    

STAT_BOX_0      138             

MOVE_BOX_1      101987          2082            2.0414          340000          

ENERGY_BOX_1    61888.8267      61888.8267      0.0000          0.0000          0.0000          0.0000          0.0000          0.0000          0.0000          0.0000          

STAT_BOX_1      392             

Steps/sec. : 3416.7698
MOVE_BOX_0      69772           34900           50.0201         0.4092          70099           35165           50.1648         0.6547          0               0               0.0000          105060          2123            2.0208          350000          

ENERGY_BOX_0    -271675.7978    20574.4818      0.0000          -201023.1925    -15763.5630     -75463.5242     -47201.7034     20887.2939      -1686748.7957   1637599.6810    

STAT_BOX_0      140             

MOVE_BOX_1      105069          2133            2.0301          350000          

ENERGY_BOX_1    61913.7241      61913.7241      0.0000          0.0000          0.0000          0.0000          0.0000          0.0000          0.0000          0.0000          

STAT_BOX_1      390             

Steps/sec. : 3395.8566
MOVE_BOX_0      71842           35916           49.9930         0.3271          72045           36137           50.1589         0.6318          0               0               0.0000          108005          2195            2.0323          360000          

ENERGY_BOX_0    -268655.6794    20088.6249      0.0000          -201821.1683    -15763.5630     -71159.5730     -45432.3337     23633.0575      -1686748.7957   1637388.4989    

STAT_BOX_0      140             

MOVE_BOX_1      108108          2205            2.0396          360000          

ENERGY_BOX_1    62543.1322      62543.1322      0.0000          0.0000          0.0000          0.0000          0.0000          0.0000          0.0000          0.0000          

STAT_BOX_1      390             

Steps/sec. : 3442.4736
MOVE_BOX_0      73820           36911           50.0014         0.3369          74124           37217           50.2091         0.8522          0               0               0.0000          110955          2288            2.0621          370000          

ENERGY_BOX_0    -266855.5455    21476.7352      0.0000          -198513.8731    -15095.2201     -74723.1876     -46021.1369     19591.2632      -1650604.1786   1602310.8648    

STAT_BOX_0      137             

MOVE_BOX_1      111101          2295            2.0657          370000          

ENERGY_BOX_1    66350.5077      66350.5077      0.0000          0.0000          0.0000          0.0000          0.0000          0.0000          0.0000          0.0000          

STAT_BOX_1      393             

Steps/sec. : 3531.7579
MOVE_BOX_0      75749           37893           50.0244         0.3637          76074           38172           50.1775         0.6645          0               0               0.0000          114017          2358            2.0681          380000          

ENERGY_BOX_0    -281544.2571    20462.5121      0.0000          -208244.2591    -15989.5610     -77772.9491     -47920.2372     19905.1378      -1698797.0014   1649039.1516    

STAT_BOX_0      141             

MOVE_BOX_1      114160          2369            2.0752          380000          

ENERGY_BOX_1    66004.6424      66004.6424      0.0000          0.0000          0.0000          0.0000          0.0000          0.0000          0.0000          0.0000          

STAT_BOX_1      389             

Steps/sec. : 3427.3938
MOVE_BOX_0      77710           38865           50.0129         0.3299          78066           39199           50.2126         0.8701          0               0               0.0000          117068          2409            2.0578          390000          

ENERGY_BOX_0    -278690.4688    19450.9159      0.0000          -208963.1896    -15989.5610     -73188.6340     -43706.9501     19992.3504      -1698797.0014   1649322.9671    

STAT_BOX_0      141             

MOVE_BOX_1      117156          2420            2.0656          390000          

ENERGY_BOX_1    62769.0724      62769.0724      0.0000          0.0000          0.0000          0.0000          0.0000          0.0000          0.0000          0.0000          

STAT_BOX_1      389             

Steps/sec. : 3433.7523
MOVE_BOX_0      79714           39865           50.0100         0.3142          80104           40209           50.1960         0.7548          0               0               0.0000          120048          2500            2.0825          400000          

ENERGY_BOX_0    -279612.1887    18784.7749      0.0000          -205856.3329    -15763.5630     -76777.0678     -47237.9391     19866.8359      -1686748.7957   1637342.8311    

STAT_BOX_0      140             

MOVE_BOX_1      120134          2510            2.0893          400000          

ENERGY_BOX_1    59382.7372      59382.7372      0.0000          0.0000          0.0000          0.0000          0.0000          0.0000          0.0000          0.0000          

STAT_BOX_1      390             

Steps/sec. : 3471.0385
MOVE_BOX_0      81703           40870           50.0226         0.3418          82118           41224           50.2009         0.7825          0               0               0.0000          123149          2546            2.0674          410000          

ENERGY_BOX_0    -284203.9921    21886.8009      0.0000          -209787.8450    -16446.3826     -79856.5653     -49112.3368     19583.8631      -1722893.4127   1672565.3211    

STAT_BOX_0      143             

MOVE_BOX_1      123030          2559            2.0800          410000          

ENERGY_BOX_1    60119.2197      60119.2197      0.0000          0.0000          0.0000          0.0000          0.0000          0.0000          0.0000          0.0000          

STAT_BOX_1      387             

Steps/sec. : 3390.2615
MOVE_BOX_0      83670           41858           50.0275         0.3437          84132           42223           50.1866         0.7004          0               0               0.0000          126154          2586            2.0499          420000          

ENERGY_BOX_0    -292651.1154    22508.7198      0.0000          -217672.2034    -16446.3826     -81041.2492     -50602.0774     19723.3651      -1722893.4127   1672730.8759    

STAT_BOX_0      143             

MOVE_BOX_1      126044          2599            2.0620          420000          

ENERGY_BOX_1    58328.7819      58328.7819      0.0000          0.0000          0.0000          0.0000          0.0000          0.0000          0.0000          0.0000          

STAT_BOX_1      387             

Steps/sec. : 3388.3892
MOVE_BOX_0      85672           42877           50.0479         0.4011          86143           43234           50.1886         0.7175          0               0               0.0000          129138          2641            2.0451          430000          

ENERGY_BOX_0    -275253.2026    23151.5340      0.0000          -204726.7388    -15539.1735     -78138.8243     -49486.0612     20125.6367      -1674700.5900   1625922.1903    

STAT_BOX_0      139             

MOVE_BOX_1      129047          2650            2.0535          430000          

ENERGY_BOX_1    56624.8256      56624.8256      0.0000          0.0000          0.0000          0.0000          0.0000          0.0000          0.0000          0.0000          

STAT_BOX_1      391             

Steps/sec. : 3426.7545
MOVE_BOX_0      87646           43850           50.0308         0.3326          88131           44237           50.1946         0.7484          0               0               0.0000          132180          2683            2.0298          440000          

ENERGY_BOX_0    -278086.1031    22462.6892      0.0000          -205812.1927    -15539.1735     -79197.4261     -47594.3865     17119.3269      -1674700.5900   1625978.2235    

STAT_BOX_0      139             

MOVE_BOX_1      132043          2692            2.0387          440000          

ENERGY_BOX_1    56306.7756      56306.7756      0.0000          0.0000          0.0000          0.0000          0.0000          0.0000          0.0000          0.0000          

STAT_BOX_1      391             

Steps/sec. : 3423.2297
MOVE_BOX_0      89733           44906           50.0440         0.3570          90093           45237           50.2114         0.8607          0               0               0.0000          135190          2735            2.0231          450000          

ENERGY_BOX_0    -269714.1630    19375.5175      0.0000          -199302.0921    -14875.6562     -74911.9323     -45557.1735     18438.8017      -1638555.9730   1590762.4125    

STAT_BOX_0      136             

MOVE_BOX_1      134984          2741            2.0306          450000          

ENERGY_BOX_1    53894.2058      53894.2058      0.0000          0.0000          0.0000          0.0000          0.0000          0.0000          0.0000          0.0000          

STAT_BOX_1      394             

Steps/sec. : 3464.7657
MOVE_BOX_0      91769           45920           50.0387         0.3320          92148           46248           50.1888         0.7230          0               0               0.0000          138155          2778            2.0108          460000          

ENERGY_BOX_0    -301522.5208    20723.3222      0.0000          -220616.7213    -16909.6384     -84719.4833     -52809.8683     19135.9200      -1746989.8241   1695944.2891    

STAT_BOX_0      145             

MOVE_BOX_1      137928          2793            2.0250          460000          

ENERGY_BOX_1    52788.2332      52788.2332      0.0000          0.0000          0.0000          0.0000          0.0000          0.0000          0.0000          0.0000          

STAT_BOX_1      385             

Steps/sec. : 3396.7658
MOVE_BOX_0      93805           46945           50.0453         0.3492          94195           47288           50.2022         0.7920          0               0               0.0000          141132          2818            1.9967          470000          

ENERGY_BOX_0    -296555.5673    18303.7234      0.0000          -215606.0894    -16217.1676     -83036.0337     -51556.2961     18350.5460      -1710845.2071   1661014.9235    

STAT_BOX_0      142             

MOVE_BOX_1      140868          2830            2.0090          470000          

ENERGY_BOX_1    54283.9563      54283.9563      0.0000          0.0000          0.0000          0.0000          0.0000          0.0000          0.0000          0.0000          

STAT_BOX_1      388             

Steps/sec. : 3383.5450
MOVE_BOX_0      95809           47951           50.0485         0.3375          96190           48288           50.2006         0.8045          0               0               0.0000          144205          2852            1.9777          480000          

ENERGY_BOX_0    -301512.8152    18272.8254      0.0000          -218858.9513    -16446.3826     -84480.3067     -51697.4525     17513.5588      -1722893.4127   1672596.9999    

STAT_BOX_0      143             

MOVE_BOX_1      143796          2865            1.9924          480000          

ENERGY_BOX_1    51001.0765      51001.0765      0.0000          0.0000          0.0000          0.0000          0.0000          0.0000          0.0000          0.0000          

STAT_BOX_1      387             

Steps/sec. : 3451.0128
MOVE_BOX_0      97837           48957           50.0394         0.3061          98173           49276           50.1930         0.7535          0               0               0.0000          147203          2898            1.9687          490000          

ENERGY_BOX_0    -293174.4769    20757.8083      0.0000          -209833.0282    -16217.1676     -87882.0895     -55450.1754     17430.4645      -1710845.2071   1660982.8285    

STAT_BOX_0      142             

MOVE_BOX_1      146787          2910            1.9825          490000          

ENERGY_BOX_1    52818.6871      52818.6871      0.0000          0.0000          0.0000          0.0000          0.0000          0.0000          0.0000          0.0000          

STAT_BOX_1      388             

Steps/sec. : 3407.5695
MOVE_BOX_0      99839           49960           50.0406         0.3085          100118          50244           50.1848         0.6653          0               0               0.0000          150148          2927            1.9494          500000          

ENERGY_BOX_0    -302895.0588    22449.8268      0.0000          -220763.5496    -16909.6384     -87671.6976     -55241.4422     18495.5742      -1746989.8241   1696063.9946    

STAT_BOX_0      145             

MOVE_BOX_1      149895          2942            1.9627          500000          

ENERGY_BOX_1    52339.7099      52339.7099      0.0000          0.0000          0.0000          0.0000          0.0000          0.0000          0.0000          0.0000          

STAT_BOX_1      385             

Steps/sec. : 3269.0990
MOVE_BOX_0      101824          50957           50.0442         0.3239          102169          51281           50.1923         0.7218          0               0               0.0000          153144          2955            1.9296          510000          

ENERGY_BOX_0    -302064.5910    22418.4458      0.0000          -222838.0097    -16909.6384     -84735.3888     -52997.8113     19164.5867      -1746989.8241   1696087.6599    

STAT_BOX_0      145             

MOVE_BOX_1      152863          2970            1.9429          510000          

ENERGY_BOX_1    56065.2025      56065.2025      0.0000          0.0000          0.0000          0.0000          0.0000          0.0000          0.0000          0.0000          

STAT_BOX_1      385             

Steps/sec. : 1205.0828
MOVE_BOX_0      103810          51937           50.0308         0.2716          104136          52267           50.1911         0.7120          0               0               0.0000          156176          2988            1.9132          520000          

ENERGY_BOX_0    -304592.9598    24557.6091      0.0000          -221044.1967    -17379.3282     -90727.0439     -56993.3596     18268.8999      -1771086.2355   1719083.6512    

STAT_BOX_0      147             

MOVE_BOX_1      155878          3005            1.9278          520000          

ENERGY_BOX_1    54829.5825      54829.5825      0.0000          0.0000          0.0000          0.0000          0.0000          0.0000          0.0000          0.0000          

STAT_BOX_1      383             

Steps/sec. : 1210.8191
MOVE_BOX_0      105767          52942           50.0553         0.3234          106073          53250           50.2013         0.7866          0               0               0.0000          159320          3028            1.9006          530000          

ENERGY_BOX_0    -291725.6455    23817.5886      0.0000          -218930.1560    -16446.3826     -80166.6954     -49787.8607     20291.5524      -1722893.4127   1672223.0256    

STAT_BOX_0      143             

MOVE_BOX_1      158840          3041            1.9145          530000          

ENERGY_BOX_1    55243.9886      55243.9886      0.0000          0.0000          0.0000          0.0000          0.0000          0.0000          0.0000          0.0000          

STAT_BOX_1      387             

Steps/sec. : 1205.7538
MOVE_BOX_0      107779          53966           50.0710         0.3781          108075          54263           50.2087         0.8587          0               0               0.0000          162256          3071            1.8927          540000          

ENERGY_BOX_0    -271311.7387    22010.4773      0.0000          -202602.4094    -14875.6562     -75844.1504     -44749.6087     17118.4206      -1638555.9730   1590343.0107    

STAT_BOX_0      136             

MOVE_BOX_1      161890          3077            1.9007          540000          

ENERGY_BOX_1    58285.7992      58285.7992      0.0000          0.0000          0.0000          0.0000          0.0000          0.0000          0.0000          0.0000          

STAT_BOX_1      394             

Steps/sec. : 1352.4563
MOVE_BOX_0      109817          55000           50.0833         0.4103          109992          55213           50.1973         0.7190          0               0               0.0000          165261          3118            1.8867          550000          

ENERGY_BOX_0    -290850.0951    20265.5226      0.0000          -214973.7353    -16446.3826     -79695.4998     -48930.2076     19561.4683      -1722893.4127   1672566.6522    

STAT_BOX_0      143             

MOVE_BOX_1      164930          3131            1.8984          550000          

ENERGY_BOX_1    57569.8622      57569.8622      0.0000          0.0000          0.0000          0.0000          0.0000          0.0000          0.0000          0.0000          

STAT_BOX_1      387             

Steps/sec. : 1027.4539
MOVE_BOX_0      111813          55981           50.0666         0.3209          111944          56208           50.2108         0.8048          0               0               0.0000          168241          3169            1.8836          560000          

ENERGY_BOX_0    -266439.6854    19987.6281      0.0000          -199950.7795    -15989.5610     -70486.9729     -43380.1360     22359.2521      -1698797.0014   1649330.9124    

STAT_BOX_0      141             

MOVE_BOX_1      168002          3180            1.8928          560000          

ENERGY_BOX_1    55985.1082      55985.1082      0.0000          0.0000          0.0000          0.0000          0.0000          0.0000          0.0000          0.0000          

STAT_BOX_1      389             

Steps/sec. : 1009.2838
MOVE_BOX_0      113854          57015           50.0773         0.3501          113963          57218           50.2075         0.7833          0               0               0.0000          171121          3235            1.8905          570000          

ENERGY_BOX_0    -282828.5365    20381.5224      0.0000          -209701.7744    -16446.3826     -77061.9018     -47340.8770     20429.0993      -1722893.4127   1672743.2886    

STAT_BOX_0      143             

MOVE_BOX_1      171062          3248            1.8987          570000          

ENERGY_BOX_1    53344.4814      53344.4814      0.0000          0.0000          0.0000          0.0000          0.0000          0.0000          0.0000          0.0000          

STAT_BOX_1      387             

Steps/sec. : 1625.4670
MOVE_BOX_0      115854          58024           50.0837         0.3741          115978          58229           50.2069         0.7965          0               0               0.0000          174061          3276            1.8821          580000          

ENERGY_BOX_0    -264461.9884    18838.6672      0.0000          -194509.1064    -15095.2201     -73696.3291     -45639.3881     20105.7941      -1650604.1786   1602441.4435    

STAT_BOX_0      137             

MOVE_BOX_1      174107          3283            1.8856          580000          

ENERGY_BOX_1    55576.0774      55576.0774      0.0000          0.0000          0.0000          0.0000          0.0000          0.0000          0.0000          0.0000          

STAT_BOX_1      393             

Steps/sec. : 1531.9118
MOVE_BOX_0      117882          59034           50.0789         0.3433          118013          59232           50.1911         0.6387          0               0               0.0000          177043          3356            1.8956          590000          

ENERGY_BOX_0    -240384.6696    17084.8985      0.0000          -173599.3659    -13801.9645     -70068.2377     -42183.4265     17945.7894      -1578314.9445   1532484.3440    

STAT_BOX_0      131             

MOVE_BOX_1      177062          3357            1.8959          590000          

ENERGY_BOX_1    55088.4576      55088.4576      0.0000          0.0000          0.0000          0.0000          0.0000          0.0000          0.0000          0.0000          

STAT_BOX_1      399             

Steps/sec. : 1500.8119
MOVE_BOX_0      119928          60067           50.0859         0.3682          120014          60258           50.2091         0.7534          0               0               0.0000          180020          3444            1.9131          600000          

ENERGY_BOX_0    -261582.1595    19534.4072      0.0000          -192594.0235    -14875.6562     -73646.8870     -44726.1549     18509.0628      -1638555.9730   1591126.1781    

STAT_BOX_0      136             

MOVE_BOX_1      180038          3450            1.9163          600000          

ENERGY_BOX_1    58112.4384      58112.4384      0.0000          0.0000          0.0000          0.0000          0.0000          0.0000          0.0000          0.0000          

STAT_BOX_1      394             

Steps/sec. : 1483.1628
MOVE_BOX_0      121986          61093           50.0820         0.3444          122079          61301           50.2142         0.7784          0               0               0.0000          182988          3510            1.9182          610000          

ENERGY_BOX_0    -241910.0434    17559.3300      0.0000          -178553.1515    -14013.4858     -66902.7361     -39560.1141     19030.4762      -1590363.1502   1543990.0520    

STAT_BOX_0      132             

MOVE_BOX_1      182947          3512            1.9197          610000          

ENERGY_BOX_1    61741.1751      61741.1751      0.0000          0.0000          0.0000          0.0000          0.0000          0.0000          0.0000          0.0000          

STAT_BOX_1      398             

Steps/sec. : 1606.3986
MOVE_BOX_0      123948          62086           50.0904         0.3362          124096          62319           50.2184         0.8174          0               0               0.0000          186016          3575            1.9219          620000          

ENERGY_BOX_0    -269951.6330    17999.5910      0.0000          -196466.3012    -15316.3925     -76168.5303     -46032.6451     17939.7008      -1662652.3843   1614576.7984    

STAT_BOX_0      138             

MOVE_BOX_1      185940          3583            1.9270          620000          

ENERGY_BOX_1    60697.2725      60697.2725      0.0000          0.0000          0.0000          0.0000          0.0000          0.0000          0.0000          0.0000          

STAT_BOX_1      392             

Steps/sec. : 1599.4524
MOVE_BOX_0      125900          63067           50.0929         0.3498          126091          63307           50.2074         0.7083          0               0               0.0000          189077          3611            1.9098          630000          

ENERGY_BOX_0    -286371.0360    20692.1789      0.0000          -209027.8130    -15989.5610     -82045.8409     -50009.6405     17167.8918      -1698797.0014   1649592.9092    

STAT_BOX_0      141             

MOVE_BOX_1      188932          3622            1.9171          630000          

ENERGY_BOX_1    62868.1553      62868.1553      0.0000          0.0000          0.0000          0.0000          0.0000          0.0000          0.0000          0.0000          

STAT_BOX_1      389             

Steps/sec. : 1518.3045
MOVE_BOX_0      127872          64066           50.1017         0.3878          128014          64273           50.2078         0.7151          0               0               0.0000          192175          3643            1.8957          640000          

ENERGY_BOX_0    -295008.9730    21882.5520      0.0000          -220006.6527    -16446.3826     -80438.4896     -49185.5570     18782.8063      -1722893.4127   1672857.6738    

STAT_BOX_0      143             

MOVE_BOX_1      191939          3656            1.9048          640000          

ENERGY_BOX_1    61601.2484      61601.2484      0.0000          0.0000          0.0000          0.0000          0.0000          0.0000          0.0000          0.0000          

STAT_BOX_1      387             

Steps/sec. : 1494.6627
MOVE_BOX_0      129872          65057           50.0932         0.3468          130002          65267           50.2046         0.6964          0               0               0.0000          195165          3669            1.8799          650000          

ENERGY_BOX_0    -296398.9926    21410.4265      0.0000          -218218.9702    -16217.1676     -83373.2813     -50686.8823     16995.6915      -1710845.2071   1661163.1165    

STAT_BOX_0      142             

MOVE_BOX_1      194961          3681            1.8881          650000          

ENERGY_BOX_1    63702.4333      63702.4333      0.0000          0.0000          0.0000          0.0000          0.0000          0.0000          0.0000          0.0000          

STAT_BOX_1      388             

Steps/sec. : 1478.4162
MOVE_BOX_0      131827          66037           50.0937         0.3456          131975          66257           50.2042         0.6961          0               0               0.0000          198233          3711            1.8720          660000          

ENERGY_BOX_0    -293669.7348    21278.9178      0.0000          -213948.9580    -16217.1676     -84782.5271     -51954.6128     17047.1616      -1710845.2071   1660970.1311    

STAT_BOX_0      142             

MOVE_BOX_1      197965          3723            1.8806          660000          

ENERGY_BOX_1    62466.7918      62466.7918      0.0000          0.0000          0.0000          0.0000          0.0000          0.0000          0.0000          0.0000          

STAT_BOX_1      388             

Steps/sec. : 1485.2582
MOVE_BOX_0      133825          67042           50.0968         0.3510          133952          67254           50.2075         0.7411          0               0               0.0000          201294          3758            1.8669          670000          

ENERGY_BOX_0    -279370.5544    19419.9396      0.0000          -205099.4681    -15539.1735     -78151.8524     -47489.2829     17949.3735      -1674700.5900   1626088.6470    

STAT_BOX_0      139             

MOVE_BOX_1      200929          3767            1.8748          670000          

ENERGY_BOX_1    60520.3380      60520.3380      0.0000          0.0000          0.0000          0.0000          0.0000          0.0000          0.0000          0.0000          

STAT_BOX_1      391             

Steps/sec. : 1546.5189
MOVE_BOX_0      135857          68068           50.1027         0.3598          135921          68248           50.2115         0.8040          0               0               0.0000          204331          3799            1.8592          680000          

ENERGY_BOX_0    -276801.7169    23848.0382      0.0000          -206814.4360    -15763.5630     -78071.7561     -48386.9989     19100.9440      -1686748.7957   1637963.0945    

STAT_BOX_0      140             

MOVE_BOX_1      203891          3809            1.8682          680000          

ENERGY_BOX_1    60658.6709      60658.6709      0.0000          0.0000          0.0000          0.0000          0.0000          0.0000          0.0000          0.0000          

STAT_BOX_1      390             

Steps/sec. : 1504.1028
MOVE_BOX_0      137886          69082           50.1008         0.3577          137855          69214           50.2078         0.7503          0               0               0.0000          207413          3866            1.8639          690000          

ENERGY_BOX_0    -246588.2249    21706.3712      0.0000          -182759.6476    -14013.4858     -71521.4627     -44118.8701     18648.6725      -1590363.1502   1544311.8851    

STAT_BOX_0      132             

MOVE_BOX_1      206846          3868            1.8700          690000          

ENERGY_BOX_1    65523.1926      65523.1926      0.0000          0.0000          0.0000          0.0000          0.0000          0.0000          0.0000          0.0000          

STAT_BOX_1      398             

Steps/sec. : 1541.6463
MOVE_BOX_0      139891          70103           50.1126         0.3868          139795          70181           50.2028         0.6721          0               0               0.0000          210450          3920            1.8627          700000          

ENERGY_BOX_0    -269310.5854    22086.4649      0.0000          -207033.9767    -15539.1735     -68823.9001     -42406.3307     21812.0944      -1674700.5900   1626470.9262    

STAT_BOX_0      139             

MOVE_BOX_1      209864          3929            1.8722          700000          

ENERGY_BOX_1    66199.6513      66199.6513      0.0000          0.0000          0.0000          0.0000          0.0000          0.0000          0.0000          0.0000          

STAT_BOX_1      391             

Steps/sec. : 1474.0536
MOVE_BOX_0      141885          71107           50.1159         0.4009          141781          71184           50.2070         0.7146          0               0               0.0000          213450          3975            1.8623          710000          

ENERGY_BOX_0    -274096.4092    19496.8276      0.0000          -201733.2827    -15316.3925     -76543.5616     -46686.8524     18181.2001      -1662652.3843   1614614.4751    

STAT_BOX_0      138             

MOVE_BOX_1      212884          3983            1.8710          710000          

ENERGY_BOX_1    65145.4075      65145.4075      0.0000          0.0000          0.0000          0.0000          0.0000          0.0000          0.0000          0.0000          

STAT_BOX_1      392             

Steps/sec. : 1385.8162
MOVE_BOX_0      143853          72102           50.1220         0.4297          143825          72212           50.2082         0.7435          0               0               0.0000          216490          4030            1.8615          720000          

ENERGY_BOX_0    -280628.8271    19079.1253      0.0000          -204911.1249    -15989.5610     -78807.2664     -47276.1298     17671.0483      -1698797.0014   1649594.8164    

STAT_BOX_0      141             

MOVE_BOX_1      215832          4041            1.8723          720000          

ENERGY_BOX_1    61932.1838      61932.1838      0.0000          0.0000          0.0000          0.0000          0.0000          0.0000          0.0000          0.0000          

STAT_BOX_1      389             

Steps/sec. : 1793.7024
MOVE_BOX_0      145892          73106           50.1097         0.3570          145738          73181           50.2141         0.8264          0               0               0.0000          219543          4090            1.8630          730000          

ENERGY_BOX_0    -287820.2701    18322.9970      0.0000          -207622.8143    -15763.5630     -82756.8898     -50722.0565     17154.8158      -1686748.7957   1637559.1465    

STAT_BOX_0      140             

MOVE_BOX_1      218827          4100            1.8736          730000          

ENERGY_BOX_1    58079.6037      58079.6037      0.0000          0.0000          0.0000          0.0000          0.0000          0.0000          0.0000          0.0000          

STAT_BOX_1      390             

Steps/sec. : 1973.8184
MOVE_BOX_0      148008          74167           50.1101         0.3667          147748          74190           50.2139         0.8370          0               0               0.0000          222508          4117            1.8503          740000          

ENERGY_BOX_0    -274605.4851    19897.8944      0.0000          -197473.8453    -15316.3925     -81713.1417     -50129.8440     16911.1284      -1662652.3843   1614157.9582    

STAT_BOX_0      138             

MOVE_BOX_1      221736          4125            1.8603          740000          

ENERGY_BOX_1    58293.0270      58293.0270      0.0000          0.0000          0.0000          0.0000          0.0000          0.0000          0.0000          0.0000          

STAT_BOX_1      392             

Steps/sec. : 1875.2434
MOVE_BOX_0      149996          75175           50.1180         0.3964          149775          75194           50.2046         0.7537          0               0               0.0000          225540          4156            1.8427          750000          

ENERGY_BOX_0    -280762.6664    19835.8575      0.0000          -206313.7941    -15539.1735     -78745.5563     -48190.6376     18315.2753      -1674700.5900   1625830.3960    

STAT_BOX_0      139             

MOVE_BOX_1      224689          4165            1.8537          750000          

ENERGY_BOX_1    56992.2201      56992.2201      0.0000          0.0000          0.0000          0.0000          0.0000          0.0000          0.0000          0.0000          

STAT_BOX_1      391             

Steps/sec. : 1837.7985
MOVE_BOX_0      151908          76127           50.1139         0.3682          151847          76236           50.2058         0.7687          0               0               0.0000          228570          4206            1.8401          760000          

ENERGY_BOX_0    -282503.2351    20600.4976      0.0000          -207937.6202    -16217.1676     -78948.9449     -48454.1273     19198.9339      -1710845.2071   1661151.4555    

STAT_BOX_0      142             

MOVE_BOX_1      227675          4218            1.8526          760000          

ENERGY_BOX_1    57301.4847      57301.4847      0.0000          0.0000          0.0000          0.0000          0.0000          0.0000          0.0000          0.0000          

STAT_BOX_1      388             

Steps/sec. : 1837.9384
MOVE_BOX_0      153862          77102           50.1111         0.3485          153866          77259           50.2119         0.8563          0               0               0.0000          231607          4274            1.8454          770000          

ENERGY_BOX_0    -267518.6113    22998.1302      0.0000          -203393.4822    -15763.5630     -71359.6963     -43012.3831     20603.3462      -1686748.7957   1637798.1363    

STAT_BOX_0      140             

MOVE_BOX_1      230665          4284            1.8572          770000          

ENERGY_BOX_1    55013.6178      55013.6178      0.0000          0.0000          0.0000          0.0000          0.0000          0.0000          0.0000          0.0000          

STAT_BOX_1      390             

Steps/sec. : 1916.7619
MOVE_BOX_0      155866          78119           50.1193         0.3801          155864          78258           50.2092         0.7825          0               0               0.0000          234561          4370            1.8631          780000          

ENERGY_BOX_0    -210326.7625    20190.2684      0.0000          -159458.1444    -12167.7012     -58891.1852     -33930.0823     17717.2979      -1481929.2991   1439250.8982    

STAT_BOX_0      123             

MOVE_BOX_1      233709          4363            1.8669          780000          

ENERGY_BOX_1    59630.7971      59630.7971      0.0000          0.0000          0.0000          0.0000          0.0000          0.0000          0.0000          0.0000          

STAT_BOX_1      407             

Steps/sec. : 1955.2059
MOVE_BOX_0      157891          79134           50.1194         0.3842          157942          79314           50.2172         0.8769          0               0               0.0000          237478          4474            1.8840          790000          

ENERGY_BOX_0    -249359.0578    21081.0742      0.0000          -187234.8726    -14441.3539     -68763.9055     -42305.1354     20245.7024      -1614459.5616   1567755.0891    

STAT_BOX_0      134             

MOVE_BOX_1      236689          4478            1.8919          790000          

ENERGY_BOX_1    54017.6419      54017.6419      0.0000          0.0000          0.0000          0.0000          0.0000          0.0000          0.0000          0.0000          

STAT_BOX_1      396             

Steps/sec. : 1945.0178
MOVE_BOX_0      159921          80137           50.1104         0.3322          159905          80288           50.2098         0.7481          0               0               0.0000          240535          4532            1.8841          800000          

ENERGY_BOX_0    -285506.7744    23312.3475      0.0000          -209418.2900    -16446.3826     -82954.4493     -52498.1430     19579.1129      -1722893.4127   1672857.9936    

STAT_BOX_0      143             

MOVE_BOX_1      239639          4545            1.8966          800000          

ENERGY_BOX_1    51854.6374      51854.6374      0.0000          0.0000          0.0000          0.0000          0.0000          0.0000          0.0000          0.0000          

STAT_BOX_1      387             

Steps/sec. : 1950.3253
MOVE_BOX_0      161908          81140           50.1149         0.3397          161895          81295           50.2146         0.8163          0               0               0.0000          243550          4572            1.8772          810000          

ENERGY_BOX_0    -293635.4906    23987.6345      0.0000          -218495.4315    -16909.6384     -82218.0552     -49489.5454     17824.2685      -1746989.8241   1696437.0458    

STAT_BOX_0      145             

MOVE_BOX_1      242647          4587            1.8904          810000          

ENERGY_BOX_1    52501.6870      52501.6870      0.0000          0.0000          0.0000          0.0000          0.0000          0.0000          0.0000          0.0000          

STAT_BOX_1      385             

Steps/sec. : 1870.3542
MOVE_BOX_0      163865          82136           50.1242         0.3645          163877          82291           50.2151         0.8123          0               0               0.0000          246555          4612            1.8706          820000          

ENERGY_BOX_0    -282049.3954    20350.0411      0.0000          -210222.1287    -15763.5630     -76413.7448     -46790.8251     19028.2445      -1686748.7957   1638097.6315    

STAT_BOX_0      140             

MOVE_BOX_1      245703          4622            1.8811          820000          

ENERGY_BOX_1    55308.0673      55308.0673      0.0000          0.0000          0.0000          0.0000          0.0000          0.0000          0.0000          0.0000          

STAT_BOX_1      390             

Steps/sec. : 1875.2068
MOVE_BOX_0      165826          83121           50.1254         0.3765          165936          83309           50.2055         0.7156          0               0               0.0000          249494          4662            1.8686          830000          

ENERGY_BOX_0    -278968.0371    22229.1041      0.0000          -206650.0050    -15539.1735     -79007.9628     -48254.2902     17838.9294      -1674700.5900   1626107.9880    

STAT_BOX_0      139             

MOVE_BOX_1      248744          4671            1.8778          830000          

ENERGY_BOX_1    53729.8985      53729.8985      0.0000          0.0000          0.0000          0.0000          0.0000          0.0000          0.0000          0.0000          

STAT_BOX_1      391             

Steps/sec. : 1880.8104
MOVE_BOX_0      167838          84127           50.1239         0.3571          167982          84345           50.2107         0.7395          0               0               0.0000          252472          4689            1.8572          840000          

ENERGY_BOX_0    -284131.1324    20595.2686      0.0000          -208779.4906    -15989.5610     -79957.3494     -48343.3978     17918.8659      -1698797.0014   1649264.1839    

STAT_BOX_0      141             

MOVE_BOX_1      251708          4700            1.8672          840000          

ENERGY_BOX_1    54176.1445      54176.1445      0.0000          0.0000          0.0000          0.0000          0.0000          0.0000          0.0000          0.0000          

STAT_BOX_1      389             

Steps/sec. : 1951.2672
MOVE_BOX_0      169847          85140           50.1275         0.3713          169968          85352           50.2165         0.8410          0               0               0.0000          255473          4736            1.8538          850000          

ENERGY_BOX_0    -268234.8603    23746.2901      0.0000          -202144.3202    -15095.2201     -74741.6101     -44494.7855     18032.5533      -1650604.1786   1602324.8007    

STAT_BOX_0      137             

MOVE_BOX_1      254712          4743            1.8621          850000          

ENERGY_BOX_1    51686.9308      51686.9308      0.0000          0.0000          0.0000          0.0000          0.0000          0.0000          0.0000          0.0000          

STAT_BOX_1      393             

Steps/sec. : 1903.5900
MOVE_BOX_0      171804          86115           50.1240         0.3519          172002          86391           50.2267         0.9390          0               0               0.0000          258502          4783            1.8503          860000          

ENERGY_BOX_0    -283058.4894    23648.8057      0.0000          -208657.7827    -16217.1676     -81832.3449     -52194.0991     19879.7908      -1710845.2071   1661327.1705    

STAT_BOX_0      142             

MOVE_BOX_1      257692          4795            1.8607          860000          

ENERGY_BOX_1    51603.8068      51603.8068      0.0000          0.0000          0.0000          0.0000          0.0000          0.0000          0.0000          0.0000          

STAT_BOX_1      388             

Steps/sec. : 1942.8473
MOVE_BOX_0      173794          87113           50.1243         0.3660          173974          87366           50.2178         0.8016          0               0               0.0000          261504          4810            1.8394          870000          

ENERGY_BOX_0    -284988.6185    22445.7145      0.0000          -207799.4569    -15989.5610     -83645.3151     -51000.6974     16871.2318      -1698797.0014   1649281.1519    

STAT_BOX_0      141             

MOVE_BOX_1      260728          4821            1.8491          870000          

ENERGY_BOX_1    51426.1443      51426.1443      0.0000          0.0000          0.0000          0.0000          0.0000          0.0000          0.0000          0.0000          

STAT_BOX_1      389             

Steps/sec. : 1785.6106
MOVE_BOX_0      175759          88081           50.1146         0.3125          175891          88346           50.2277         0.9445          0               0               0.0000          264580          4855            1.8350          880000          

ENERGY_BOX_0    -288004.6474    22130.8266      0.0000          -215493.7558    -15989.5610     -78652.1572     -47478.9434     18110.0575      -1698797.0014   1649513.7301    

STAT_BOX_0      141             

MOVE_BOX_1      263770          4866            1.8448          880000          

ENERGY_BOX_1    50885.4990      50885.4990      0.0000          0.0000          0.0000          0.0000          0.0000          0.0000          0.0000          0.0000          

STAT_BOX_1      389             

Steps/sec. : 1835.2864
MOVE_BOX_0      177744          89098           50.1271         0.3578          177901          89325           50.2105         0.7174          0               0               0.0000          267583          4896            1.8297          890000          

ENERGY_BOX_0    -268477.4482    22326.5045      0.0000          -199760.2391    -14875.6562     -76168.0573     -46953.5968     18108.0065      -1638555.9730   1591233.5059    

STAT_BOX_0      136             

MOVE_BOX_1      266772          4902            1.8375          890000          

ENERGY_BOX_1    51727.3984      51727.3984      0.0000          0.0000          0.0000          0.0000          0.0000          0.0000          0.0000          0.0000          

STAT_BOX_1      394             

Steps/sec. : 1938.6664
MOVE_BOX_0      179709          90079           50.1249         0.3424          179919          90362           50.2237         0.9182          0               0               0.0000          270646          4967            1.8352          900000          

ENERGY_BOX_0    -275551.1873    19480.2097      0.0000          -201799.4321    -15095.2201     -78136.7448     -47569.1958     17323.7790      -1650604.1786   1602712.8507    

STAT_BOX_0      137             

MOVE_BOX_1      269726          4974            1.8441          900000          

ENERGY_BOX_1    52267.7137      52267.7137      0.0000          0.0000          0.0000          0.0000          0.0000          0.0000          0.0000          0.0000          

STAT_BOX_1      393             

Steps/sec. : 1959.8386
MOVE_BOX_0      181696          91080           50.1277         0.3688          181921          91351           50.2147         0.8099          0               0               0.0000          273629          5011            1.8313          910000          

ENERGY_BOX_0    -279186.6273    19546.6930      0.0000          -206769.1296    -15763.5630     -76200.6276     -48391.6902     21399.7502      -1686748.7957   1637540.1080    

STAT_BOX_0      140             

MOVE_BOX_1      272754          5021            1.8409          910000          

ENERGY_BOX_1    52772.1481      52772.1481      0.0000          0.0000          0.0000          0.0000          0.0000          0.0000          0.0000          0.0000          

STAT_BOX_1      390             

Steps/sec. : 1981.1093
MOVE_BOX_0      183700          92094           50.1328         0.3925          183900          92332           50.2077         0.7331          0               0               0.0000          276695          5061            1.8291          920000          

ENERGY_BOX_0    -270840.3200    21362.0881      0.0000          -198963.4857    -15095.2201     -78143.7022     -47628.6894     17737.7998      -1650604.1786   1602351.3659    

STAT_BOX_0      137             

MOVE_BOX_1      275705          5068            1.8382          920000          

ENERGY_BOX_1    52836.8255      52836.8255      0.0000          0.0000          0.0000          0.0000          0.0000          0.0000          0.0000          0.0000          

STAT_BOX_1      393             

Steps/sec. : 1944.9687
MOVE_BOX_0      185646          93066           50.1309         0.3634          185944          93356           50.2065         0.7176          0               0               0.0000          279716          5130            1.8340          930000          

ENERGY_BOX_0    -284465.2768    19423.0942      0.0000          -210025.4984    -15989.5610     -77873.3116     -48116.9091     19875.3609      -1698797.0014   1649165.2380    

STAT_BOX_0      141             

MOVE_BOX_1      278694          5141            1.8447          930000          

ENERGY_BOX_1    49488.6319      49488.6319      0.0000          0.0000          0.0000          0.0000          0.0000          0.0000          0.0000          0.0000          

STAT_BOX_1      389             

Steps/sec. : 1960.7439
MOVE_BOX_0      187673          94085           50.1324         0.3596          187889          94322           50.2009         0.6498          0               0               0.0000          282751          5159            1.8246          940000          

ENERGY_BOX_0    -287766.4752    18124.7283      0.0000          -209885.1116    -16217.1676     -79788.9243     -48399.9982     18510.7500      -1710845.2071   1660945.5310    

STAT_BOX_0      142             

MOVE_BOX_1      281687          5171            1.8357          940000          

ENERGY_BOX_1    48979.7341      48979.7341      0.0000          0.0000          0.0000          0.0000          0.0000          0.0000          0.0000          0.0000          

STAT_BOX_1      388             

Steps/sec. : 1848.8810
MOVE_BOX_0      189682          95094           50.1334         0.3704          189824          95293           50.2007         0.6451          0               0               0.0000          285793          5216            1.8251          950000          

ENERGY_BOX_0    -268937.5363    19736.3701      0.0000          -191917.2435    -15316.3925     -81440.2704     -50882.8862     18027.4134      -1662652.3843   1614067.5867    

STAT_BOX_0      138             

MOVE_BOX_1      284701          5224            1.8349          950000          

ENERGY_BOX_1    49937.1093      49937.1093      0.0000          0.0000          0.0000          0.0000          0.0000          0.0000          0.0000          0.0000          

STAT_BOX_1      392             

Steps/sec. : 1907.7328
MOVE_BOX_0      191678          96100           50.1362         0.3960          191809          96309           50.2109         0.8057          0               0               0.0000          288826          5278            1.8274          960000          

ENERGY_BOX_0    -270531.4067    19307.1321      0.0000          -197046.8917    -15095.2201     -77696.4270     -47592.0859     18248.4132      -1650604.1786   1602251.4243    

STAT_BOX_0      137             

MOVE_BOX_1      287687          5285            1.8371          960000          

ENERGY_BOX_1    53340.6702      53340.6702      0.0000          0.0000          0.0000          0.0000          0.0000          0.0000          0.0000          0.0000          

STAT_BOX_1      393             

Steps/sec. : 1973.7546
MOVE_BOX_0      193729          97125           50.1345         0.3845          193761          97290           50.2113         0.7725          0               0               0.0000          291868          5346            1.8316          970000          

ENERGY_BOX_0    -285168.9390    22245.8753      0.0000          -213870.0417    -15989.5610     -77555.2116     -48123.3963     20189.0283      -1698797.0014   1649176.1578    

STAT_BOX_0      141             

MOVE_BOX_1      290642          5357            1.8432          970000          

ENERGY_BOX_1    54511.0372      54511.0372      0.0000          0.0000          0.0000          0.0000          0.0000          0.0000          0.0000          0.0000          

STAT_BOX_1      389             

Steps/sec. : 1964.1457
MOVE_BOX_0      195750          98128           50.1292         0.3479          195768          98290           50.2074         0.7261          0               0               0.0000          294821          5377            1.8238          980000          

ENERGY_BOX_0    -303574.4857    22555.0487      0.0000          -223185.4262    -17379.3282     -85564.7800     -54784.5087     20731.7404      -1771086.2355   1719574.2239    

STAT_BOX_0      147             

MOVE_BOX_1      293661          5394            1.8368          980000          

ENERGY_BOX_1    56244.7373      56244.7373      0.0000          0.0000          0.0000          0.0000          0.0000          0.0000          0.0000          0.0000          

STAT_BOX_1      383             

Steps/sec. : 1983.6662
MOVE_BOX_0      197705          99101           50.1257         0.3173          197744          99294           50.2134         0.8185          0               0               0.0000          297809          5415            1.8183          990000          

ENERGY_BOX_0    -296817.3939    20211.5419      0.0000          -219133.9192    -16677.2062     -81217.8103     -51312.4690     20471.3376      -1734941.6184   1684564.9395    

STAT_BOX_0      144             

MOVE_BOX_1      296742          5429            1.8295          990000          

ENERGY_BOX_1    56338.2792      56338.2792      0.0000          0.0000          0.0000          0.0000          0.0000          0.0000          0.0000          0.0000          

STAT_BOX_1      386             

Steps/sec. : 1932.2920
MOVE_BOX_0      199724          100111          50.1247         0.3103          199859          100344          50.2074         0.7302          0               0               0.0000          300754          5443            1.8098          1000000         

ENERGY_BOX_0    -289758.1315    19290.4257      0.0000          -212759.8340    -16217.1676     -80071.5557     -49234.7205     18771.8331      -1710845.2071   1661236.5388    

STAT_BOX_0      142             

MOVE_BOX_1      299663          5455            1.8204          1000000         

ENERGY_BOX_1    58102.5210      58102.5210      0.0000          0.0000          0.0000          0.0000          0.0000          0.0000          0.0000          0.0000          

STAT_BOX_1      388             

Simulation Time (total): 449.7267sec.
GOMC Serial Version 1.9
Completed at: Fri Dec  9 11:39:51 2016
On hostname: potoff39.eng.wayne.edu
