GOMC Serial Version 2.0
Started at: Mon Apr 24 19:20:04 2017
On hostname: potoff13.eng.wayne.edu

Total number of CPUs: 32
Total number of CPUs available: 32
Model name: Intel(R) Xeon(R) CPU E5-2640 v3 @ 2.60GHz

System name: Linux
Release: 3.10.0-327.4.5.el7.x86_64
Version: #1 SMP Mon Jan 25 13:30:47 CST 2016
Kernel Architecture: x86_64
Total Ram: 31904.2MB
Used Ram: 28296.2MB
Working in the current directory /home3/soroush/Desktop/validation/GOMC_Examples/GCMC/DME/run2a_bridge

------------------------------------------------------
This code was compiled to support the grand canonical ensemble.
------------------------------------------------------

Number of threads has been set to: 4
REMINDER: EXOTIC force field has been selected!
Temperature of system has been set to 290.00000 K 
Cut off  is set to 10.00000 A.
Cut off Low is set to 1.00000 A.
Ewald Summation method will be used to calculate electrostatic interactions.
Warning: Pressure calculation is turned off.
By default intra box swap frequency has been set to zero
Warning: By default, Fourier terms of ewald method will be cached!
Reading from Exotic Parameter File file: ./../../../common/Par_DME_Exotic.inp
Finished reading Exotic Parameter File file: ./../../../common/Par_DME_Exotic.inp
Reading from Box 1 PDB coordinate file file: ./STEP3_START_DME_BOX_0.pdb
Finished reading Box 1 PDB coordinate file file: ./STEP3_START_DME_BOX_0.pdb
Reading from Box 2 PDB coordinate file file: ./STEP3_START_DME_BOX_Res.pdb
Finished reading Box 2 PDB coordinate file file: ./STEP3_START_DME_BOX_Res.pdb
Random number seed: 1832075117

Molecules in PSF:
Molecule Kind: DME
Idx	name	type	charge	mass
0	C1	CT3	0.2650	15.0347
1	O1	OT	-0.5300	15.9994
2	C2	CT3	0.2650	15.0347
Bonds:
[0 1] [1 2] 
Angles:
[0 1 2] 
Dihedrals:

REMINDER! 1-3 and 1-4 Interaction is OFF
Minimum coordinates in box 0: x =    0.098, y =    0.088, z =    0.094
Maximum coordinates in box 0: x =   24.044, y =   24.080, z =   24.086
Minimum coordinates in box 1: x =    0.151, y =    0.101, z =    0.100
Maximum coordinates in box 1: x =   23.986, y =   24.000, z =   24.000
Box 0, RecipVectors:   1595, kmax: 10, alpha: 0.3393076

###############################################################################
########################## INITIAL SIMULATION ENERGY ##########################

ETITLE:     STEP           TOTAL        INTRA(B)       INTRA(NB)       INTER(LJ)             LRC     TOTAL_ELECT            REAL           RECIP            SELF            CORR

ENER_0:        0  714712342.3500       4847.6120          0.0000  714740405.6642     -13592.0518     -19318.8745     -18693.9003      75091.4123   -1751139.4495    1675423.0630

ENER_1:        0      14953.1600      14953.1600          0.0000          0.0000          0.0000          0.0000          0.0000          0.0000          0.0000         -0.0000

###############################################################################
############################# STARTING SIMULATION #############################

MTITLE:     STEP          DISTRY       DISACCEPT      DISACCEPT%          DISMAX          ROTATE       ROTACCEPT      ROTACCEPT%          ROTMAX       INTRASWAP       INTACCEPT      INTACCEPT%        TRANSFER      TRANACCEPT     TRANACCEPT%

ETITLE:     STEP           TOTAL        INTRA(B)       INTRA(NB)       INTER(LJ)             LRC     TOTAL_ELECT            REAL           RECIP            SELF            CORR

STITLE:     STEP        TOTALMOL

Printed combined psf to file DME_290_00_K_u_2605_merged.psf
MOVE_0:    10000            2029             878         43.2725          0.4046            1978            1003         50.7078          0.8815               0               0          0.0000            2957             257          8.6912

ENER_0:    10000    -228425.8173      15867.1347          0.0000    -167178.1709     -12971.9647     -64142.8164     -30471.3404      31018.6130   -1710728.5391    1646038.4501

STAT_0:    10000             127

MOVE_1:    10000            3036             254          8.3663

ENER_1:    10000      34472.8849      34472.8849          0.0000          0.0000          0.0000          0.0000          0.0000          0.0000          0.0000          0.0000

STAT_1:    10000             403

Steps/sec. : 4008.1154
MOVE_0:    20000            4057            1881         46.3643          0.3480            4022            2001         49.7514          0.6781               0               0          0.0000            5985             309          5.1629

ENER_0:    20000    -273060.1993      20190.9285          0.0000    -200986.5094     -15316.3925     -76948.2258     -38372.1798      31859.2240   -1858901.8772    1788466.6072

STAT_0:    20000             138

MOVE_1:    20000            5936             317          5.3403

ENER_1:    20000      38060.3936      38060.3936          0.0000          0.0000          0.0000          0.0000          0.0000          0.0000          0.0000          0.0000

STAT_1:    20000             392

Steps/sec. : 3947.8879
MOVE_0:    30000            6025            2888         47.9336          0.4386            6048            3041         50.2811          0.8479               0               0          0.0000            8922             369          4.1358

ENER_0:    30000    -257448.5412      21285.9508          0.0000    -194204.1951     -14441.3539     -70088.9430     -33768.1709      31534.1916   -1805020.6633    1737165.6996

STAT_0:    30000             134

MOVE_1:    30000            9005             373          4.1421

ENER_1:    30000      42631.9712      42631.9712          0.0000          0.0000          0.0000          0.0000          0.0000          0.0000          0.0000          0.0000

STAT_1:    30000             396

Steps/sec. : 4004.2751
MOVE_0:    40000            8059            3895         48.3311          0.3756            8091            4061         50.1916          0.8218               0               0          0.0000           11907             459          3.8549

ENER_0:    40000    -273442.1280      19284.3390          0.0000    -203831.8928     -15539.1735     -73355.4007     -36426.4967      33377.5975   -1872372.1806    1802065.6790

STAT_0:    40000             139

MOVE_1:    40000           11943             468          3.9186

ENER_1:    40000      44459.5098      44459.5098          0.0000          0.0000          0.0000          0.0000          0.0000          0.0000          0.0000          0.0000

STAT_1:    40000             391

Steps/sec. : 4047.2703
MOVE_0:    50000           10012            4865         48.5917          0.3368           10114            5076         50.1879          0.8163               0               0          0.0000           14929             510          3.4162

ENER_0:    50000    -271479.4708      19484.6244          0.0000    -202371.9953     -15316.3925     -73275.7074     -35251.8361      31872.5925   -1858901.8772    1789005.4133

STAT_0:    50000             138

MOVE_1:    50000           14945             518          3.4660

ENER_1:    50000      46032.5957      46032.5957          0.0000          0.0000          0.0000          0.0000          0.0000          0.0000          0.0000          0.0000

STAT_1:    50000             392

Steps/sec. : 3969.0418
MOVE_0:    60000           12035            5893         48.9655          0.3902           12062            6043         50.0995          0.7295               0               0          0.0000           18016             551          3.0584

ENER_0:    60000    -289829.9772      19763.4458          0.0000    -208516.8378     -15989.5610     -85087.0242     -43038.1269      29638.7691   -1899312.7875    1827625.1212

STAT_0:    60000             141

MOVE_1:    60000           17887             562          3.1419

ENER_1:    60000      44974.3303      44974.3303          0.0000          0.0000          0.0000          0.0000          0.0000          0.0000          0.0000          0.0000

STAT_1:    60000             389

Steps/sec. : 3976.9336
MOVE_0:    70000           14110            6941         49.1921          0.4181           14039            7041         50.1531          0.7908               0               0          0.0000           21023             600          2.8540

ENER_0:    70000    -277086.8023      18258.1961          0.0000    -198627.0273     -15095.2201     -81622.7509     -42238.5013      29999.4703   -1845431.5737    1776047.8538

STAT_0:    70000             137

MOVE_1:    70000           20828             607          2.9143

ENER_1:    70000      46336.1557      46336.1557          0.0000          0.0000          0.0000          0.0000          0.0000          0.0000          0.0000          0.0000

STAT_1:    70000             393

Steps/sec. : 3987.8309
MOVE_0:    80000           16112            7941         49.2862          0.3870           16017            8026         50.1093          0.7454               0               0          0.0000           24013             643          2.6777

ENER_0:    80000    -279588.2083      18266.7422          0.0000    -203526.7155     -15763.5630     -78564.6720     -39890.7556      32243.0016   -1885842.4841    1814925.5661

STAT_0:    80000             140

MOVE_1:    80000           23858             653          2.7370

ENER_1:    80000      47766.9197      47766.9197          0.0000          0.0000          0.0000          0.0000          0.0000          0.0000          0.0000          0.0000

STAT_1:    80000             390

Steps/sec. : 3952.8955
MOVE_0:    90000           18162            8947         49.2622          0.3017           18023            9039         50.1526          0.7618               0               0          0.0000           26917             690          2.5634

ENER_0:    90000    -291480.8119      22270.8619          0.0000    -214955.1797     -16446.3826     -82350.1115     -43140.2541      33004.7276   -1926253.3944    1854038.8094

STAT_0:    90000             143

MOVE_1:    90000           26898             703          2.6136

ENER_1:    90000      44956.7859      44956.7859          0.0000          0.0000          0.0000          0.0000          0.0000          0.0000          0.0000          0.0000

STAT_1:    90000             387

Steps/sec. : 3950.3725
MOVE_0:   100000           20204            9996         49.4754          0.3881           19947           10014         50.2030          0.8147               0               0          0.0000           29944             741          2.4746

ENER_0:   100000    -275082.5753      21475.1104          0.0000    -202832.0517     -15316.3925     -78409.2415     -38449.2000      29480.5691   -1858901.8772    1789461.2666

STAT_0:   100000             138

MOVE_1:   100000           29905             749          2.5046

ENER_1:   100000      48544.0493      48544.0493          0.0000          0.0000          0.0000          0.0000          0.0000          0.0000          0.0000          0.0000

STAT_1:   100000             392

Steps/sec. : 3924.4542
MOVE_0:   110000           22138           10958         49.4986          0.3341           21887           10979         50.1622          0.7292               0               0          0.0000           33024             793          2.4013

ENER_0:   110000    -283607.7423      24704.6529          0.0000    -212268.4566     -16217.1676     -79826.7711     -39716.3413      31075.4088   -1912783.0910    1841597.2524

STAT_0:   110000             142

MOVE_1:   110000           32951             805          2.4430

ENER_1:   110000      51040.4408      51040.4408          0.0000          0.0000          0.0000          0.0000          0.0000          0.0000          0.0000          0.0000

STAT_1:   110000             388

Steps/sec. : 3917.5297
MOVE_0:   120000           24144           11962         49.5444          0.3180           23885           11989         50.1947          0.7744               0               0          0.0000           36028             845          2.3454

ENER_0:   120000    -290719.1349      22582.7480          0.0000    -213580.7805     -16677.2062     -83043.8962     -44048.3264      33171.5227   -1939723.6979    1867556.6053

STAT_0:   120000             144

MOVE_1:   120000           35943             859          2.3899

ENER_1:   120000      52877.3559      52877.3559          0.0000          0.0000          0.0000          0.0000          0.0000          0.0000          0.0000          0.0000

STAT_1:   120000             386

Steps/sec. : 3944.5972
MOVE_0:   130000           26121           12960         49.6153          0.3195           25837           12959         50.1568          0.7197               0               0          0.0000           38994             893          2.2901

ENER_0:   130000    -295343.7510      23864.1523          0.0000    -217451.1217     -16677.2062     -85079.5753     -43442.1974      30524.9119   -1939723.6979    1867561.4081

STAT_0:   130000             144

MOVE_1:   130000           39048             907          2.3228

ENER_1:   130000      56388.6512      56388.6512          0.0000          0.0000          0.0000          0.0000          0.0000          0.0000          0.0000          0.0000

STAT_1:   130000             386

Steps/sec. : 3889.6899
MOVE_0:   140000           28109           13974         49.7136          0.3654           27905           13996         50.1559          0.7332               0               0          0.0000           41999             934          2.2239

ENER_0:   140000    -273705.0866      21642.7761          0.0000    -201079.1730     -15316.3925     -78952.2972     -40106.5399      30559.7264   -1858901.8772    1789496.3935

STAT_0:   140000             138

MOVE_1:   140000           41987             942          2.2436

ENER_1:   140000      56561.8427      56561.8427          0.0000          0.0000          0.0000          0.0000          0.0000          0.0000          0.0000          0.0000

STAT_1:   140000             392

Steps/sec. : 3933.6704
MOVE_0:   150000           30169           14999         49.7166          0.3362           29952           15014         50.1269          0.6733               0               0          0.0000           44932             965          2.1477

ENER_0:   150000    -285923.3289      20602.0034          0.0000    -211646.8528     -15763.5630     -79114.9165     -39253.4077      30431.7853   -1885842.4841    1815549.1899

STAT_0:   150000             140

MOVE_1:   150000           44947             975          2.1692

ENER_1:   150000      58354.7443      58354.7443          0.0000          0.0000          0.0000          0.0000          0.0000          0.0000          0.0000          0.0000

STAT_1:   150000             390

Steps/sec. : 3943.4464
MOVE_0:   160000           32201           16019         49.7469          0.3328           31909           16004         50.1551          0.7084               0               0          0.0000           47991            1019          2.1233

ENER_0:   160000    -282922.2481      19555.4017          0.0000    -209593.5731     -15316.3925     -77567.6841     -38919.0943      30433.5271   -1858901.8772    1789819.7603

STAT_0:   160000             138

MOVE_1:   160000           47899            1027          2.1441

ENER_1:   160000      57162.4164      57162.4164          0.0000          0.0000          0.0000          0.0000          0.0000          0.0000          0.0000          0.0000

STAT_1:   160000             392

Steps/sec. : 3941.3979
MOVE_0:   170000           34241           17063         49.8321          0.4033           33826           16983         50.2069          0.8594               0               0          0.0000           51054            1079          2.1134

ENER_0:   170000    -266274.2712      20133.8307          0.0000    -196246.5258     -14657.7008     -75503.8753     -37866.7462      30099.2562   -1818490.9668    1750754.5815

STAT_0:   170000             135

MOVE_1:   170000           50879            1084          2.1305

ENER_1:   170000      53094.5529      53094.5529          0.0000          0.0000          0.0000          0.0000          0.0000          0.0000          0.0000          0.0000

STAT_1:   170000             395

Steps/sec. : 3930.8977
MOVE_0:   180000           36339           18096         49.7977          0.3376           35817           17974         50.1829          0.7911               0               0          0.0000           54017            1120          2.0734

ENER_0:   180000    -283252.9552      21535.3638          0.0000    -205937.3300     -15763.5630     -83087.4260     -41335.0995      28731.1110   -1885842.4841    1815359.0466

STAT_0:   180000             140

MOVE_1:   180000           53827            1130          2.0993

ENER_1:   180000      52980.8900      52980.8900          0.0000          0.0000          0.0000          0.0000          0.0000          0.0000          0.0000          0.0000

STAT_1:   180000             390

Steps/sec. : 3963.5860
MOVE_0:   190000           38268           19084         49.8693          0.4126           37817           18975         50.1758          0.8056               0               0          0.0000           57040            1158          2.0302

ENER_0:   190000    -295555.8039      24628.4177          0.0000    -215804.0022     -16446.3826     -87933.8367     -44479.8744      28575.7511   -1926253.3944    1854223.6811

STAT_0:   190000             143

MOVE_1:   190000           56875            1171          2.0589

ENER_1:   190000      48494.4690      48494.4690          0.0000          0.0000          0.0000          0.0000          0.0000          0.0000          0.0000          0.0000

STAT_1:   190000             387

Steps/sec. : 3907.3549
MOVE_0:   200000           40283           20085         49.8597          0.3825           39837           19981         50.1569          0.7554               0               0          0.0000           60007            1217          2.0281

ENER_0:   200000    -270875.8786      22988.7600          0.0000    -199010.8877     -14875.6562     -79978.0947     -38669.1377      27068.2347   -1831961.2702    1763584.0785

STAT_0:   200000             136

MOVE_1:   200000           59873            1223          2.0427

ENER_1:   200000      49021.9893      49021.9893          0.0000          0.0000          0.0000          0.0000          0.0000          0.0000          0.0000          0.0000

STAT_1:   200000             394

Steps/sec. : 3918.4033
MOVE_0:   210000           42298           21095         49.8723          0.3728           41848           20990         50.1577          0.7802               0               0          0.0000           63061            1259          1.9965

ENER_0:   210000    -257186.6516      24312.5037          0.0000    -189933.4017     -14657.7008     -76908.0529     -38188.4822      29073.6156   -1818490.9668    1750697.7805

STAT_0:   210000             135

MOVE_1:   210000           62793            1264          2.0130

ENER_1:   210000      48357.2902      48357.2902          0.0000          0.0000          0.0000          0.0000          0.0000          0.0000          0.0000          0.0000

STAT_1:   210000             395

Steps/sec. : 3989.5203
MOVE_0:   220000           44306           22109         49.9007          0.4002           43877           22012         50.1675          0.7780               0               0          0.0000           66066            1325          2.0056

ENER_0:   220000    -265019.4336      23016.4334          0.0000    -199127.6228     -15095.2201     -73813.0242     -37277.5150      32663.9801   -1845431.5737    1776232.0845

STAT_0:   220000             137

MOVE_1:   220000           65751            1332          2.0258

ENER_1:   220000      48264.4346      48264.4346          0.0000          0.0000          0.0000          0.0000          0.0000          0.0000          0.0000          0.0000

STAT_1:   220000             393

Steps/sec. : 3987.4711
MOVE_0:   230000           46381           23137         49.8847          0.3527           45842           22979         50.1265          0.6250               0               0          0.0000           69018            1393          2.0183

ENER_0:   230000    -238003.9926      23191.5162          0.0000    -178339.6461     -13383.7475     -69472.1152     -34598.5204      29801.3735   -1737669.1460    1672994.1778

STAT_0:   230000             129

MOVE_1:   230000           68759            1392          2.0245

ENER_1:   230000      52217.4788      52217.4788          0.0000          0.0000          0.0000          0.0000          0.0000          0.0000          0.0000          0.0000

STAT_1:   230000             401

Steps/sec. : 3999.3730
MOVE_0:   240000           48363           24130         49.8935          0.3495           47869           24026         50.1911          0.8304               0               0          0.0000           72059            1461          2.0275

ENER_0:   240000    -269781.6599      20854.5333          0.0000    -199470.4188     -15316.3925     -75849.3819     -37819.8471      31370.8707   -1858901.8772    1789501.4716

STAT_0:   240000             138

MOVE_1:   240000           71709            1469          2.0486

ENER_1:   240000      52433.9243      52433.9243          0.0000          0.0000          0.0000          0.0000          0.0000          0.0000          0.0000          0.0000

STAT_1:   240000             392

Steps/sec. : 3986.1713
MOVE_0:   250000           50392           25170         49.9484          0.4165           49768           24985         50.2029          0.8899               0               0          0.0000           75089            1530          2.0376

ENER_0:   250000    -260301.4214      21843.1292          0.0000    -193096.9572     -14875.6562     -74171.9373     -37113.9020      31092.3994   -1831961.2702    1763810.8356

STAT_0:   250000             136

MOVE_1:   250000           74751            1536          2.0548

ENER_1:   250000      52123.1918      52123.1918          0.0000          0.0000          0.0000          0.0000          0.0000          0.0000          0.0000          0.0000

STAT_1:   250000             394

Steps/sec. : 3961.8346
MOVE_0:   260000           52429           26172         49.9189          0.3347           51735           25953         50.1653          0.7498               0               0          0.0000           78090            1578          2.0207

ENER_0:   260000    -278705.9742      21409.7587          0.0000    -203357.8741     -15539.1735     -81218.6853     -41354.3739      29707.2618   -1872372.1806    1802800.6074

STAT_0:   260000             139

MOVE_1:   260000           77746            1587          2.0413

ENER_1:   260000      50807.2096      50807.2096          0.0000          0.0000          0.0000          0.0000          0.0000          0.0000          0.0000          0.0000

STAT_1:   260000             391

Steps/sec. : 3978.6761
MOVE_0:   270000           54385           27158         49.9366          0.3518           53794           26976         50.1469          0.6994               0               0          0.0000           81060            1633          2.0146

ENER_0:   270000    -284453.7481      21795.4397          0.0000    -210474.9336     -16217.1676     -79557.0867     -41294.7996      32719.0642   -1912783.0910    1841801.7398

STAT_0:   270000             142

MOVE_1:   270000           80761            1645          2.0369

ENER_1:   270000      49376.5875      49376.5875          0.0000          0.0000          0.0000          0.0000          0.0000          0.0000          0.0000          0.0000

STAT_1:   270000             388

Steps/sec. : 3972.0733
MOVE_0:   280000           56459           28196         49.9407          0.3430           55683           27914         50.1302          0.6483               0               0          0.0000           84062            1661          1.9759

ENER_0:   280000    -299349.8521      21483.6983          0.0000    -223514.4157     -16677.2062     -80641.9284     -40332.4775      31595.3438   -1939723.6979    1867818.9032

STAT_0:   280000             144

MOVE_1:   280000           83796            1675          1.9989

ENER_1:   280000      50513.7713      50513.7713          0.0000          0.0000          0.0000          0.0000          0.0000          0.0000          0.0000          0.0000

STAT_1:   280000             386

Steps/sec. : 3891.2716
MOVE_0:   290000           58442           29180         49.9298          0.3163           57727           28948         50.1464          0.7057               0               0          0.0000           87084            1699          1.9510

ENER_0:   290000    -304823.2930      20356.9170          0.0000    -226467.8621     -16909.6384     -81802.7096     -42022.1936      32804.4918   -1953194.0014    1880608.9935

STAT_0:   290000             145

MOVE_1:   290000           86747            1714          1.9759

ENER_1:   290000      47649.0555      47649.0555          0.0000          0.0000          0.0000          0.0000          0.0000          0.0000          0.0000          0.0000

STAT_1:   290000             385

Steps/sec. : 3930.4546
MOVE_0:   300000           60389           30184         49.9826          0.4137           59729           29964         50.1666          0.8095               0               0          0.0000           90065            1731          1.9219

ENER_0:   300000    -296374.1310      21394.7145          0.0000    -221812.2574     -16909.6384     -79046.9497     -39549.8594      33140.4121   -1953194.0014    1880556.4990

STAT_0:   300000             145

MOVE_1:   300000           89817            1746          1.9440

ENER_1:   300000      48413.0296      48413.0296          0.0000          0.0000          0.0000          0.0000          0.0000          0.0000          0.0000          0.0000

STAT_1:   300000             385

Steps/sec. : 3891.5518
MOVE_0:   310000           62397           31175         49.9623          0.3297           61701           30944         50.1515          0.7132               0               0          0.0000           93165            1778          1.9084

ENER_0:   310000    -286974.9180      22037.8407          0.0000    -213011.9330     -16217.1676     -79783.6581     -41438.6394      32619.5918   -1912783.0910    1841818.4805

STAT_0:   310000             142

MOVE_1:   310000           92737            1790          1.9302

ENER_1:   310000      52461.2616      52461.2616          0.0000          0.0000          0.0000          0.0000          0.0000          0.0000          0.0000          0.0000

STAT_1:   310000             388

Steps/sec. : 4842.7535
MOVE_0:   320000           64359           32176         49.9946          0.3733           63701           31965         50.1797          0.8799               0               0          0.0000           96193            1815          1.8868

ENER_0:   320000    -278402.4227      19910.3459          0.0000    -208162.1479     -15539.1735     -74611.4471     -37355.4537      31953.1703   -1872372.1806    1803163.0169

STAT_0:   320000             139

MOVE_1:   320000           95747            1824          1.9050

ENER_1:   320000      52345.9956      52345.9956          0.0000          0.0000          0.0000          0.0000          0.0000          0.0000          0.0000          0.0000

STAT_1:   320000             391

Steps/sec. : 4869.8789
MOVE_0:   330000           66392           33195         49.9985          0.3756           65714           32958         50.1537          0.7469               0               0          0.0000           99168            1879          1.8948

ENER_0:   330000    -268978.1925      23778.2109          0.0000    -201879.2675     -15539.1735     -75337.9625     -37318.0617      31268.7832   -1872372.1806    1803083.4967

STAT_0:   330000             139

MOVE_1:   330000           98726            1888          1.9124

ENER_1:   330000      52741.9684      52741.9684          0.0000          0.0000          0.0000          0.0000          0.0000          0.0000          0.0000          0.0000

STAT_1:   330000             391

Steps/sec. : 4931.4138
MOVE_0:   340000           68361           34175         49.9920          0.3553           67712           33971         50.1698          0.8243               0               0          0.0000          102177            1925          1.8840

ENER_0:   340000    -281478.8934      23243.0882          0.0000    -210032.0708     -16217.1676     -78472.7432     -40438.0131      32344.5950   -1912783.0910    1842403.7659

STAT_0:   340000             142

MOVE_1:   340000          101750            1937          1.9037

ENER_1:   340000      51454.2659      51454.2659          0.0000          0.0000          0.0000          0.0000          0.0000          0.0000          0.0000          0.0000

STAT_1:   340000             388

Steps/sec. : 4857.0285
MOVE_0:   350000           70363           35185         50.0050          0.3787           69717           34954         50.1370          0.6420               0               0          0.0000          105283            1962          1.8635

ENER_0:   350000    -276715.0468      22128.8866          0.0000    -204373.8795     -15763.5630     -78706.4909     -39874.9810      30607.1886   -1885842.4841    1816403.7856

STAT_0:   350000             140

MOVE_1:   350000          104637            1972          1.8846

ENER_1:   350000      51789.0688      51789.0688          0.0000          0.0000          0.0000          0.0000          0.0000          0.0000          0.0000          0.0000

STAT_1:   350000             390

Steps/sec. : 4938.9500
MOVE_0:   360000           72341           36175         50.0062          0.3703           71691           35978         50.1848          0.9049               0               0          0.0000          108356            2012          1.8568

ENER_0:   360000    -266162.5320      23641.9374          0.0000    -199787.3180     -15316.3925     -74700.7589     -38983.2569      32740.0273   -1858901.8772    1790444.3479

STAT_0:   360000             138

MOVE_1:   360000          107612            2020          1.8771

ENER_1:   360000      51145.1448      51145.1448          0.0000          0.0000          0.0000          0.0000          0.0000          0.0000          0.0000          0.0000

STAT_1:   360000             392

Steps/sec. : 4873.4199
MOVE_0:   370000           74308           37141         49.9825          0.2868           73690           36975         50.1764          0.8459               0               0          0.0000          111397            2046          1.8367

ENER_0:   370000    -299912.5215      24106.1855          0.0000    -223224.7718     -16909.6384     -83884.2968     -42076.5107      30389.6732   -1953194.0014    1880996.5420

STAT_0:   370000             145

MOVE_1:   370000          110605            2061          1.8634

ENER_1:   370000      49763.7709      49763.7709          0.0000          0.0000          0.0000          0.0000          0.0000          0.0000          0.0000          0.0000

STAT_1:   370000             385

Steps/sec. : 4875.2904
MOVE_0:   380000           76296           38155         50.0092          0.3304           75652           37970         50.1903          0.9005               0               0          0.0000          114433            2098          1.8334

ENER_0:   380000    -268286.9899      25448.9441          0.0000    -204365.1683     -15539.1735     -73831.5922     -36455.7013      31951.1517   -1872372.1806    1803045.1380

STAT_0:   380000             139

MOVE_1:   380000          113619            2107          1.8544

ENER_1:   380000      50692.2107      50692.2107          0.0000          0.0000          0.0000          0.0000          0.0000          0.0000          0.0000          0.0000

STAT_1:   380000             391

Steps/sec. : 4869.8410
MOVE_0:   390000           78302           39174         50.0294          0.3748           77614           38933         50.1623          0.7059               0               0          0.0000          117414            2143          1.8252

ENER_0:   390000    -285018.0705      24888.8626          0.0000    -214928.2176     -16446.3826     -78532.3329     -40256.5683      33316.7844   -1926253.3944    1854660.8456

STAT_0:   390000             143

MOVE_1:   390000          116670            2156          1.8479

ENER_1:   390000      51666.3386      51666.3386          0.0000          0.0000          0.0000          0.0000          0.0000          0.0000          0.0000          0.0000

STAT_1:   390000             387

Steps/sec. : 4840.6884
MOVE_0:   400000           80302           40172         50.0262          0.3487           79651           39953         50.1601          0.6834               0               0          0.0000          120339            2190          1.8199

ENER_0:   400000    -291536.6619      23948.3677          0.0000    -219696.1400     -16677.2062     -79111.6834     -40997.7656      34045.6822   -1939723.6979    1867564.0980

STAT_0:   400000             144

MOVE_1:   400000          119708            2204          1.8411

ENER_1:   400000      54121.5660      54121.5660          0.0000          0.0000          0.0000          0.0000          0.0000          0.0000          0.0000          0.0000

STAT_1:   400000             386

Steps/sec. : 4875.7223
MOVE_0:   410000           82243           41149         50.0334          0.3690           81617           40953         50.1770          0.7837               0               0          0.0000          123402            2242          1.8168

ENER_0:   410000    -270239.0041      22098.4546          0.0000    -203733.7052     -15539.1735     -73064.5800     -36378.2243      33146.6104   -1872372.1806    1802539.2145

STAT_0:   410000             139

MOVE_1:   410000          122738            2251          1.8340

ENER_1:   410000      52081.8501      52081.8501          0.0000          0.0000          0.0000          0.0000          0.0000          0.0000          0.0000          0.0000

STAT_1:   410000             391

Steps/sec. : 4919.6717
MOVE_0:   420000           84197           42125         50.0315          0.3592           83657           41979         50.1799          0.8153               0               0          0.0000          126388            2270          1.7961

ENER_0:   420000    -292325.2720      23139.6056          0.0000    -221827.2309     -16677.2062     -76960.4405     -40266.6985      35571.7768   -1939723.6979    1867458.1792

STAT_0:   420000             144

MOVE_1:   420000          125758            2284          1.8162

ENER_1:   420000      50390.4670      50390.4670          0.0000          0.0000          0.0000          0.0000          0.0000          0.0000          0.0000          0.0000

STAT_1:   420000             386

Steps/sec. : 4868.0798
MOVE_0:   430000           86175           43119         50.0366          0.3712           85630           42967         50.1775          0.7850               0               0          0.0000          129438            2306          1.7815

ENER_0:   430000    -281779.4171      23740.2389          0.0000    -211638.4105     -15989.5610     -77891.6845     -38758.8583      31443.2200   -1899312.7875    1828736.7412

STAT_0:   430000             141

MOVE_1:   430000          128757            2317          1.7995

ENER_1:   430000      50534.7085      50534.7085          0.0000          0.0000          0.0000          0.0000          0.0000          0.0000          0.0000          0.0000

STAT_1:   430000             389

Steps/sec. : 4863.9294
MOVE_0:   440000           88164           44107         50.0284          0.3174           87633           43963         50.1672          0.7311               0               0          0.0000          132493            2362          1.7827

ENER_0:   440000    -295599.9451      24232.3186          0.0000    -220042.6378     -16909.6384     -82879.9876     -40893.6420      30758.0871   -1953194.0014    1880449.5687

STAT_0:   440000             145

MOVE_1:   440000          131710            2377          1.8047

ENER_1:   440000      50768.5765      50768.5765          0.0000          0.0000          0.0000          0.0000          0.0000          0.0000          0.0000          0.0000

STAT_1:   440000             385

Steps/sec. : 4881.2297
MOVE_0:   450000           90161           45123         50.0471          0.3740           89659           44982         50.1701          0.7623               0               0          0.0000          135506            2391          1.7645

ENER_0:   450000    -278955.9970      25472.9771          0.0000    -212278.0203     -15989.5610     -76161.3928     -37701.0278      32128.1998   -1899312.7875    1828724.2227

STAT_0:   450000             141

MOVE_1:   450000          134674            2402          1.7836

ENER_1:   450000      50178.1523      50178.1523          0.0000          0.0000          0.0000          0.0000          0.0000          0.0000          0.0000          0.0000

STAT_1:   450000             389

Steps/sec. : 4896.6535
MOVE_0:   460000           92153           46125         50.0526          0.3810           91695           46017         50.1849          0.8839               0               0          0.0000          138469            2442          1.7636

ENER_0:   460000    -255969.4170      23425.3051          0.0000    -189052.3724     -15095.2201     -75247.1297     -38501.7471      31634.7344   -1845431.5737    1777051.4567

STAT_0:   460000             137

MOVE_1:   460000          137683            2449          1.7787

ENER_1:   460000      50053.6734      50053.6734          0.0000          0.0000          0.0000          0.0000          0.0000          0.0000          0.0000          0.0000

STAT_1:   460000             393

Steps/sec. : 4916.2182
MOVE_0:   470000           94081           47059         50.0197          0.2722           93726           47032         50.1803          0.7700               0               0          0.0000          141443            2481          1.7541

ENER_0:   470000    -275986.3900      24774.8866          0.0000    -209940.1859     -16217.1676     -74603.9231     -36305.8645      32924.5722   -1912783.0910    1841560.4602

STAT_0:   470000             142

MOVE_1:   470000          140750            2493          1.7712

ENER_1:   470000      49502.8396      49502.8396          0.0000          0.0000          0.0000          0.0000          0.0000          0.0000          0.0000          0.0000

STAT_1:   470000             388

Steps/sec. : 4896.1357
MOVE_0:   480000           96124           48119         50.0593          0.3673           95678           48011         50.1798          0.7955               0               0          0.0000          144413            2535          1.7554

ENER_0:   480000    -265516.0306      26963.5361          0.0000    -196653.2183     -15316.3925     -80509.9559     -41127.3877      30079.2889   -1858901.8772    1789440.0201

STAT_0:   480000             138

MOVE_1:   480000          143785            2543          1.7686

ENER_1:   480000      49257.2816      49257.2816          0.0000          0.0000          0.0000          0.0000          0.0000          0.0000          0.0000          0.0000

STAT_1:   480000             392

Steps/sec. : 4922.9752
MOVE_0:   490000           98052           49088         50.0632          0.3667           97678           49011         50.1761          0.7689               0               0          0.0000          147439            2581          1.7506

ENER_0:   490000    -273304.1808      27254.3926          0.0000    -205291.4974     -15763.5630     -79503.5130     -40249.6407      31302.7330   -1885842.4841    1815285.8787

STAT_0:   490000             140

MOVE_1:   490000          146831            2591          1.7646

ENER_1:   490000      48356.1181      48356.1181          0.0000          0.0000          0.0000          0.0000          0.0000          0.0000          0.0000          0.0000

STAT_1:   490000             390

Steps/sec. : 4908.2594
MOVE_0:   500000          100012           50066         50.0600          0.3486           99669           50014         50.1801          0.7954               0               0          0.0000          150431            2629          1.7476

ENER_0:   500000    -283267.9434      30122.9947          0.0000    -211268.6295     -16217.1676     -85905.1410     -44201.8375      29659.5225   -1912783.0910    1841420.2651

STAT_0:   500000             142

MOVE_1:   500000          149888            2641          1.7620

ENER_1:   500000      49401.7531      49401.7531          0.0000          0.0000          0.0000          0.0000          0.0000          0.0000          0.0000          0.0000

STAT_1:   500000             388

Steps/sec. : 4507.2336
MOVE_0:   510000          102000           51077         50.0755          0.4126          101686           51023         50.1770          0.7568               0               0          0.0000          153487            2665          1.7363

ENER_0:   510000    -286737.1388      26572.0047          0.0000    -214718.1412     -16217.1676     -82373.8347     -40160.1783      28994.8368   -1912783.0910    1841574.5978

STAT_0:   510000             142

MOVE_1:   510000          152827            2677          1.7517

ENER_1:   510000      47765.8394      47765.8394          0.0000          0.0000          0.0000          0.0000          0.0000          0.0000          0.0000          0.0000

STAT_1:   510000             388

Steps/sec. : 1950.3510
MOVE_0:   520000          104003           52073         50.0687          0.3655          103665           52027         50.1876          0.8209               0               0          0.0000          156454            2716          1.7360

ENER_0:   520000    -274473.0197      29030.2819          0.0000    -208851.0725     -15989.5610     -78662.6680     -39367.4614      31413.3148   -1899312.7875    1828604.2661

STAT_0:   520000             141

MOVE_1:   520000          155878            2727          1.7494

ENER_1:   520000      50940.5160      50940.5160          0.0000          0.0000          0.0000          0.0000          0.0000          0.0000          0.0000          0.0000

STAT_1:   520000             389

Steps/sec. : 1898.7002
MOVE_0:   530000          105984           53081         50.0840          0.4011          105726           53066         50.1920          0.8856               0               0          0.0000          159433            2755          1.7280

ENER_0:   530000    -275847.3683      31163.6004          0.0000    -210591.7087     -15989.5610     -80429.6990     -39461.1358      29674.3425   -1899312.7875    1828669.8818

STAT_0:   530000             141

MOVE_1:   530000          158857            2766          1.7412

ENER_1:   530000      46325.3919      46325.3919          0.0000          0.0000          0.0000          0.0000          0.0000          0.0000          0.0000          0.0000

STAT_1:   530000             389

Steps/sec. : 1866.4728
MOVE_0:   540000          107969           54083         50.0912          0.4334          107689           54026         50.1685          0.7138               0               0          0.0000          162422            2816          1.7338

ENER_0:   540000    -258529.0536      29960.9413          0.0000    -205819.3577     -15539.1735     -67131.4638     -31225.2990      33727.7786   -1872372.1806    1802738.2373

STAT_0:   540000             139

MOVE_1:   540000          161920            2825          1.7447

ENER_1:   540000      51326.9722      51326.9722          0.0000          0.0000          0.0000          0.0000          0.0000          0.0000          0.0000          0.0000

STAT_1:   540000             391

Steps/sec. : 1813.3281
MOVE_0:   550000          109944           55062         50.0819          0.3523          109684           55045         50.1851          0.8432               0               0          0.0000          165373            2863          1.7312

ENER_0:   550000    -272638.6482      27445.6171          0.0000    -202808.0644     -15539.1735     -81737.0275     -41541.4544      29533.2296   -1872372.1806    1802643.3780

STAT_0:   550000             139

MOVE_1:   550000          164999            2872          1.7406

ENER_1:   550000      49165.7738      49165.7738          0.0000          0.0000          0.0000          0.0000          0.0000          0.0000          0.0000          0.0000

STAT_1:   550000             391

Steps/sec. : 1813.5342
MOVE_0:   560000          111893           56041         50.0845          0.3381          111682           56037         50.1755          0.7662               0               0          0.0000          168437            2923          1.7354

ENER_0:   560000    -272290.8573      28001.5169          0.0000    -202936.5291     -15539.1735     -81816.6716     -40882.2194      28985.0809   -1872372.1806    1802452.6474

STAT_0:   560000             139

MOVE_1:   560000          167988            2932          1.7454

ENER_1:   560000      48501.2208      48501.2208          0.0000          0.0000          0.0000          0.0000          0.0000          0.0000          0.0000          0.0000

STAT_1:   560000             391

Steps/sec. : 1791.5448
MOVE_0:   570000          113812           57007         50.0887          0.3468          113724           57056         50.1706          0.7212               0               0          0.0000          171411            2974          1.7350

ENER_0:   570000    -273416.1242      28042.2636          0.0000    -206712.8885     -15989.5610     -78755.9383     -39813.8500      31903.1026   -1899312.7875    1828467.5966

STAT_0:   570000             141

MOVE_1:   570000          171053            2985          1.7451

ENER_1:   570000      50232.7096      50232.7096          0.0000          0.0000          0.0000          0.0000          0.0000          0.0000          0.0000          0.0000

STAT_1:   570000             389

Steps/sec. : 1758.1966
MOVE_0:   580000          115865           58042         50.0945          0.3617          115708           58068         50.1849          0.8611               0               0          0.0000          174432            3027          1.7353

ENER_0:   580000    -276750.1615      23463.9050          0.0000    -209158.7130     -15539.1735     -75516.1800     -37842.4488      32409.5046   -1872372.1806    1802288.9448

STAT_0:   580000             139

MOVE_1:   580000          173995            3036          1.7449

ENER_1:   580000      51220.9277      51220.9277          0.0000          0.0000          0.0000          0.0000          0.0000          0.0000          0.0000          0.0000

STAT_1:   580000             391

Steps/sec. : 1813.0421
MOVE_0:   590000          117865           59052         50.1014          0.3740          117688           59066         50.1886          0.9168               0               0          0.0000          177465            3092          1.7423

ENER_0:   590000    -275260.3054      24033.6953          0.0000    -203989.7851     -15763.5630     -79540.6526     -40011.1820      31169.2707   -1885842.4841    1815143.7427

STAT_0:   590000             140

MOVE_1:   590000          176982            3102          1.7527

ENER_1:   590000      52731.4156      52731.4156          0.0000          0.0000          0.0000          0.0000          0.0000          0.0000          0.0000          0.0000

STAT_1:   590000             390

Steps/sec. : 1832.8811
MOVE_0:   600000          119847           60027         50.0864          0.2990          119702           60053         50.1688          0.7384               0               0          0.0000          180432            3154          1.7480

ENER_0:   600000    -267351.7965      21975.5677          0.0000    -196003.0391     -14441.3539     -78882.9712     -39410.8998      28074.1798   -1805020.6633    1737474.4121

STAT_0:   600000             134

MOVE_1:   600000          180019            3158          1.7543

ENER_1:   600000      56889.0539      56889.0539          0.0000          0.0000          0.0000          0.0000          0.0000          0.0000          0.0000          0.0000

STAT_1:   600000             396

Steps/sec. : 1818.4721
MOVE_0:   610000          121846           61042         50.0977          0.3420          121675           61042         50.1681          0.7452               0               0          0.0000          183428            3200          1.7446

ENER_0:   610000    -290760.1046      21318.5579          0.0000    -214559.4202     -16446.3826     -81072.8596     -40809.7668      31614.1049   -1926253.3944    1854376.1967

STAT_0:   610000             143

MOVE_1:   610000          183051            3213          1.7552

ENER_1:   610000      55346.7764      55346.7764          0.0000          0.0000          0.0000          0.0000          0.0000          0.0000          0.0000          0.0000

STAT_1:   610000             387

Steps/sec. : 1838.6960
MOVE_0:   620000          123902           62071         50.0969          0.3391          123660           62041         50.1706          0.7838               0               0          0.0000          186417            3247          1.7418

ENER_0:   620000    -295965.2091      20508.8639          0.0000    -216791.9631     -16446.3826     -83235.7273     -42296.8049      30856.0284   -1926253.3944    1854458.4436

STAT_0:   620000             143

MOVE_1:   620000          186021            3260          1.7525

ENER_1:   620000      56990.7635      56990.7635          0.0000          0.0000          0.0000          0.0000          0.0000          0.0000          0.0000          0.0000

STAT_1:   620000             387

Steps/sec. : 1778.4775
MOVE_0:   630000          125861           63055         50.0989          0.3483          125671           63045         50.1667          0.7401               0               0          0.0000          189455            3276          1.7292

ENER_0:   630000    -285465.8089      22130.9392          0.0000    -208596.5735     -15763.5630     -83236.6116     -42648.6456      29865.8513   -1885842.4841    1815388.6667

STAT_0:   630000             140

MOVE_1:   630000          189013            3286          1.7385

ENER_1:   630000      56923.2853      56923.2853          0.0000          0.0000          0.0000          0.0000          0.0000          0.0000          0.0000          0.0000

STAT_1:   630000             390

Steps/sec. : 1832.7042
MOVE_0:   640000          127902           64084         50.1040          0.3480          127652           64039         50.1669          0.7489               0               0          0.0000          192456            3338          1.7344

ENER_0:   640000    -284013.9241      22690.7383          0.0000    -208471.9482     -15763.5630     -82469.1512     -41232.8109      28971.9431   -1885842.4841    1815634.2007

STAT_0:   640000             140

MOVE_1:   640000          191990            3348          1.7438

ENER_1:   640000      52616.3831      52616.3831          0.0000          0.0000          0.0000          0.0000          0.0000          0.0000          0.0000          0.0000

STAT_1:   640000             390

Steps/sec. : 1816.4189
MOVE_0:   650000          129910           65086         50.1008          0.3400          129628           65035         50.1705          0.8002               0               0          0.0000          195475            3380          1.7291

ENER_0:   650000    -284056.4340      21113.0714          0.0000    -208050.1778     -15989.5610     -81129.7667     -40739.0422      30454.7922   -1899312.7875    1828467.2709

STAT_0:   650000             141

MOVE_1:   650000          194987            3391          1.7391

ENER_1:   650000      50406.9398      50406.9398          0.0000          0.0000          0.0000          0.0000          0.0000          0.0000          0.0000          0.0000

STAT_1:   650000             389

Steps/sec. : 1794.3541
MOVE_0:   660000          131897           66102         50.1164          0.3876          131638           66042         50.1694          0.7826               0               0          0.0000          198487            3421          1.7235

ENER_0:   660000    -284639.5180      21393.4313          0.0000    -209959.6830     -15989.5610     -80083.7053     -41082.0133      31978.2747   -1899312.7875    1828332.8208

STAT_0:   660000             141

MOVE_1:   660000          197978            3432          1.7335

ENER_1:   660000      50624.4354      50624.4354          0.0000          0.0000          0.0000          0.0000          0.0000          0.0000          0.0000          0.0000

STAT_1:   660000             389

Steps/sec. : 1824.2423
MOVE_0:   670000          133867           67077         50.1072          0.3402          133621           67036         50.1688          0.7799               0               0          0.0000          201521            3474          1.7239

ENER_0:   670000    -278086.3799      20499.2299          0.0000    -204833.3384     -15539.1735     -78213.0979     -40034.9311      31561.1525   -1872372.1806    1802632.8614

STAT_0:   670000             139

MOVE_1:   670000          200991            3483          1.7329

ENER_1:   670000      49935.8334      49935.8334          0.0000          0.0000          0.0000          0.0000          0.0000          0.0000          0.0000          0.0000

STAT_1:   670000             391

Steps/sec. : 1788.8326
MOVE_0:   680000          135803           68063         50.1189          0.3863          135671           68072         50.1743          0.8113               0               0          0.0000          204518            3522          1.7221

ENER_0:   680000    -298277.8567      18700.6397          0.0000    -212161.8275     -16446.3826     -88370.2863     -46525.3721      29851.8456   -1926253.3944    1854556.6347

STAT_0:   680000             143

MOVE_1:   680000          204008            3535          1.7328

ENER_1:   680000      48596.2013      48596.2013          0.0000          0.0000          0.0000          0.0000          0.0000          0.0000          0.0000          0.0000

STAT_1:   680000             387

Steps/sec. : 1810.1598
MOVE_0:   690000          137866           69095         50.1175          0.3749          137707           69081         50.1652          0.7354               0               0          0.0000          207464            3542          1.7073

ENER_0:   690000    -303989.5303      19325.0832          0.0000    -221611.4240     -16677.2062     -85025.9832     -42901.4028      30270.1071   -1939723.6979    1867329.0104

STAT_0:   690000             144

MOVE_1:   690000          206963            3556          1.7182

ENER_1:   690000      49493.1951      49493.1951          0.0000          0.0000          0.0000          0.0000          0.0000          0.0000          0.0000          0.0000

STAT_1:   690000             386

Steps/sec. : 1700.2275
MOVE_0:   700000          139879           70103         50.1169          0.3793          139654           70083         50.1833          0.9429               0               0          0.0000          210427            3575          1.6989

ENER_0:   700000    -291199.3487      18091.1942          0.0000    -212071.9122     -16446.3826     -80772.2481     -40347.6394      31247.0536   -1926253.3944    1854581.7322

STAT_0:   700000             143

MOVE_1:   700000          210040            3588          1.7082

ENER_1:   700000      53320.4618      53320.4618          0.0000          0.0000          0.0000          0.0000          0.0000          0.0000          0.0000          0.0000

STAT_1:   700000             387

Steps/sec. : 1811.0381
MOVE_0:   710000          141876           71110         50.1212          0.4022          141622           71068         50.1815          0.9254               0               0          0.0000          213445            3598          1.6857

ENER_0:   710000    -283851.1167      17517.9457          0.0000    -205857.8660     -15539.1735     -79972.0229     -41140.3201      30725.2757   -1872372.1806    1802815.2021

STAT_0:   710000             139

MOVE_1:   710000          213057            3607          1.6930

ENER_1:   710000      53644.0052      53644.0052          0.0000          0.0000          0.0000          0.0000          0.0000          0.0000          0.0000          0.0000

STAT_1:   710000             391

Steps/sec. : 1806.5813
MOVE_0:   720000          143855           72091         50.1137          0.3556          143578           72039         50.1741          0.8299               0               0          0.0000          216527            3658          1.6894

ENER_0:   720000    -258594.5928      17916.6073          0.0000    -190725.2425     -14657.7008     -71128.2569     -34851.3632      30776.9944   -1818490.9668    1751437.0787

STAT_0:   720000             135

MOVE_1:   720000          216040            3663          1.6955

ENER_1:   720000      57822.7086      57822.7086          0.0000          0.0000          0.0000          0.0000          0.0000          0.0000          0.0000          0.0000

STAT_1:   720000             395

Steps/sec. : 1822.8337
MOVE_0:   730000          145839           73093         50.1190          0.3565          145597           73049         50.1721          0.7699               0               0          0.0000          219489            3742          1.7049

ENER_0:   730000    -270775.6390      18455.5444          0.0000    -200088.9819     -15316.3925     -73825.8090     -37277.9737      32222.1579   -1858901.8772    1790131.8839

STAT_0:   730000             138

MOVE_1:   730000          219075            3750          1.7117

ENER_1:   730000      57193.2808      57193.2808          0.0000          0.0000          0.0000          0.0000          0.0000          0.0000          0.0000          0.0000

STAT_1:   730000             392

Steps/sec. : 1780.2768
MOVE_0:   740000          147838           74097         50.1204          0.3597          147565           74045         50.1779          0.8593               0               0          0.0000          222528            3790          1.7032

ENER_0:   740000    -283910.4101      19499.2145          0.0000    -212433.9146     -15763.5630     -75212.1470     -37081.7212      32003.9763   -1885842.4841    1815708.0819

STAT_0:   740000             140

MOVE_1:   740000          222069            3800          1.7112

ENER_1:   740000      55677.6574      55677.6574          0.0000          0.0000          0.0000          0.0000          0.0000          0.0000          0.0000          0.0000

STAT_1:   740000             390

Steps/sec. : 1796.9908
MOVE_0:   750000          149853           75113         50.1245          0.3816          149568           75050         50.1778          0.8925               0               0          0.0000          225533            3867          1.7146

ENER_0:   750000    -257493.2778      19655.8559          0.0000    -193296.6972     -14875.6562     -68976.7803     -33186.8557      32374.6658   -1831961.2702    1763796.6798

STAT_0:   750000             136

MOVE_1:   750000          225046            3873          1.7210

ENER_1:   750000      54080.3472      54080.3472          0.0000          0.0000          0.0000          0.0000          0.0000          0.0000          0.0000          0.0000

STAT_1:   750000             394

Steps/sec. : 1759.9080
MOVE_0:   760000          151769           76070         50.1222          0.3725          151607           76068         50.1745          0.8582               0               0          0.0000          228531            3942          1.7249

ENER_0:   760000    -238677.5342      18809.2044          0.0000    -180092.6888     -13592.0518     -63801.9980     -31810.1433      33447.2680   -1751139.4495    1685700.3268

STAT_0:   760000             130

MOVE_1:   760000          228093            3942          1.7282

ENER_1:   760000      59523.6229      59523.6229          0.0000          0.0000          0.0000          0.0000          0.0000          0.0000          0.0000          0.0000

STAT_1:   760000             400

Steps/sec. : 1826.8785
MOVE_0:   770000          153823           77087         50.1141          0.3397          153521           77015         50.1658          0.7388               0               0          0.0000          231580            4000          1.7273

ENER_0:   770000    -249244.7436      25430.0321          0.0000    -190893.0100     -14657.7008     -69124.0649     -33732.5349      33072.3198   -1818490.9668    1750027.1170

STAT_0:   770000             135

MOVE_1:   770000          231076            4005          1.7332

ENER_1:   770000      56831.3355      56831.3355          0.0000          0.0000          0.0000          0.0000          0.0000          0.0000          0.0000          0.0000

STAT_1:   770000             395

Steps/sec. : 1815.7074
MOVE_0:   780000          155813           78114         50.1332          0.4381          155525           78038         50.1771          0.8848               0               0          0.0000          234621            4069          1.7343

ENER_0:   780000    -258090.7164      23806.5425          0.0000    -194278.6009     -14875.6562     -72743.0018     -37073.5722      32751.7430   -1831961.2702    1763540.0976

STAT_0:   780000             136

MOVE_1:   780000          234041            4075          1.7411

ENER_1:   780000      56420.3847      56420.3847          0.0000          0.0000          0.0000          0.0000          0.0000          0.0000          0.0000          0.0000

STAT_1:   780000             394

Steps/sec. : 1880.9679
MOVE_0:   790000          157822           79096         50.1172          0.3402          157479           79009         50.1711          0.8093               0               0          0.0000          237591            4144          1.7442

ENER_0:   790000    -272090.8434      24148.6745          0.0000    -202386.5360     -15989.5610     -77863.4209     -39473.6301      32224.8285   -1899312.7875    1828698.1683

STAT_0:   790000             141

MOVE_1:   790000          237108            4155          1.7524

ENER_1:   790000      56003.5466      56003.5466          0.0000          0.0000          0.0000          0.0000          0.0000          0.0000          0.0000          0.0000

STAT_1:   790000             389

Steps/sec. : 1866.3266
MOVE_0:   800000          159875           80124         50.1167          0.3409          159475           80016         50.1746          0.8184               0               0          0.0000          240613            4211          1.7501

ENER_0:   800000    -283791.3224      22695.1928          0.0000    -208059.5451     -15989.5610     -82437.4091     -41991.8413      30018.6905   -1899312.7875    1828848.5292

STAT_0:   800000             141

MOVE_1:   800000          240037            4222          1.7589

ENER_1:   800000      64002.2204      64002.2204          0.0000          0.0000          0.0000          0.0000          0.0000          0.0000          0.0000          0.0000

STAT_1:   800000             389

Steps/sec. : 1817.8943
MOVE_0:   810000          161900           81152         50.1248          0.3693          161480           81022         50.1746          0.8057               0               0          0.0000          243573            4275          1.7551

ENER_0:   810000    -256086.4612      21217.0228          0.0000    -188977.4021     -14441.3539     -73884.7279     -38050.5019      31248.3232   -1805020.6633    1737938.1141

STAT_0:   810000             134

MOVE_1:   810000          243047            4279          1.7606

ENER_1:   810000      61983.4682      61983.4682          0.0000          0.0000          0.0000          0.0000          0.0000          0.0000          0.0000          0.0000

STAT_1:   810000             396

Steps/sec. : 1710.2361
MOVE_0:   820000          163890           82143         50.1208          0.3465          163485           82028         50.1746          0.7923               0               0          0.0000          246590            4337          1.7588

ENER_0:   820000    -256210.5538      21243.6990          0.0000    -187815.8614     -14657.7008     -74980.6906     -37416.3205      30178.3807   -1818490.9668    1750748.2160

STAT_0:   820000             135

MOVE_1:   820000          246035            4342          1.7648

ENER_1:   820000      61013.7242      61013.7242          0.0000          0.0000          0.0000          0.0000          0.0000          0.0000          0.0000          0.0000

STAT_1:   820000             395

Steps/sec. : 1823.1807
MOVE_0:   830000          165919           83184         50.1353          0.4256          165505           83037         50.1719          0.7760               0               0          0.0000          249542            4408          1.7664

ENER_0:   830000    -252709.9909      20832.7147          0.0000    -187028.3579     -14441.3539     -72072.9937     -35678.6311      30921.3810   -1805020.6633    1737704.9197

STAT_0:   830000             134

MOVE_1:   830000          249034            4412          1.7716

ENER_1:   830000      58990.0030      58990.0030          0.0000          0.0000          0.0000          0.0000          0.0000          0.0000          0.0000          0.0000

STAT_1:   830000             396

Steps/sec. : 1810.6688
MOVE_0:   840000          167949           84196         50.1319          0.3817          167534           84060         50.1749          0.8191               0               0          0.0000          252507            4452          1.7631

ENER_0:   840000    -275130.2618      20460.2781          0.0000    -204688.7283     -15539.1735     -75362.6381     -38054.8595      32583.3768   -1872372.1806    1802481.0253

STAT_0:   840000             139

MOVE_1:   840000          252010            4461          1.7702

ENER_1:   840000      57194.9140      57194.9140          0.0000          0.0000          0.0000          0.0000          0.0000          0.0000          0.0000          0.0000

STAT_1:   840000             391

Steps/sec. : 1788.8172
MOVE_0:   850000          169955           85202         50.1321          0.3771          169500           85038         50.1699          0.7627               0               0          0.0000          255645            4544          1.7775

ENER_0:   850000    -257190.6268      18273.8765          0.0000    -189892.4808     -14441.3539     -71130.6686     -34350.0709      30212.9146   -1805020.6633    1738027.1510

STAT_0:   850000             134

MOVE_1:   850000          254900            4548          1.7842

ENER_1:   850000      56668.8357      56668.8357          0.0000          0.0000          0.0000          0.0000          0.0000          0.0000          0.0000          0.0000

STAT_1:   850000             396

Steps/sec. : 1791.3889
MOVE_0:   860000          171900           86165         50.1251          0.3274          171499           86044         50.1717          0.7811               0               0          0.0000          258772            4636          1.7915

ENER_0:   860000    -264270.8659      19824.3691          0.0000    -194518.1730     -15095.2201     -74481.8419     -38036.8067      32055.1141   -1845431.5737    1776931.4244

STAT_0:   860000             137

MOVE_1:   860000          257829            4643          1.8008

ENER_1:   860000      53019.7967      53019.7967          0.0000          0.0000          0.0000          0.0000          0.0000          0.0000          0.0000          0.0000

STAT_1:   860000             393

Steps/sec. : 1765.7593
MOVE_0:   870000          173937           87191         50.1279          0.3465          173493           87058         50.1795          0.8674               0               0          0.0000          261751            4687          1.7906

ENER_0:   870000    -279012.7535      20877.1971          0.0000    -213532.2746     -15539.1735     -70818.5025     -35076.7412      33591.1647   -1872372.1806    1803039.2546

STAT_0:   870000             139

MOVE_1:   870000          260819            4696          1.8005

ENER_1:   870000      55037.3515      55037.3515          0.0000          0.0000          0.0000          0.0000          0.0000          0.0000          0.0000          0.0000

STAT_1:   870000             391

Steps/sec. : 1847.2788
MOVE_0:   880000          175956           88225         50.1404          0.4087          175542           88087         50.1800          0.8812               0               0          0.0000          264742            4738          1.7897

ENER_0:   880000    -278106.9829      18341.2354          0.0000    -201450.5033     -15095.2201     -79902.4949     -38967.4273      27486.5790   -1845431.5737    1777009.9271

STAT_0:   880000             137

MOVE_1:   880000          263760            4745          1.7990

ENER_1:   880000      53694.2005      53694.2005          0.0000          0.0000          0.0000          0.0000          0.0000          0.0000          0.0000          0.0000

STAT_1:   880000             393

Steps/sec. : 1799.9632
MOVE_0:   890000          178051           89272         50.1384          0.3975          177544           89075         50.1707          0.7692               0               0          0.0000          267729            4779          1.7850

ENER_0:   890000    -293399.8582      16797.1454          0.0000    -216363.3639     -16217.1676     -77616.4722     -38285.1847      31599.6122   -1912783.0910    1841852.1912

STAT_0:   890000             142

MOVE_1:   890000          266676            4791          1.7966

ENER_1:   890000      55862.4583      55862.4583          0.0000          0.0000          0.0000          0.0000          0.0000          0.0000          0.0000          0.0000

STAT_1:   890000             388

Steps/sec. : 1803.1420
MOVE_0:   900000          180038           90260         50.1339          0.3638          179501           90061         50.1730          0.8020               0               0          0.0000          270792            4831          1.7840

ENER_0:   900000    -287015.9350      19146.8193          0.0000    -211903.2487     -15763.5630     -78495.9427     -39735.0491      31050.9453   -1885842.4841    1816030.6451

STAT_0:   900000             140

MOVE_1:   900000          269669            4841          1.7952

ENER_1:   900000      59588.2689      59588.2689          0.0000          0.0000          0.0000          0.0000          0.0000          0.0000          0.0000          0.0000

STAT_1:   900000             390

Steps/sec. : 1807.1020
MOVE_0:   910000          182087           91285         50.1326          0.3536          181477           91048         50.1705          0.7846               0               0          0.0000          273739            4873          1.7802

ENER_0:   910000    -293303.6307      19053.9237          0.0000    -214720.8813     -16446.3826     -81190.2905     -40596.9839      30561.0643   -1926253.3944    1855099.0235

STAT_0:   910000             143

MOVE_1:   910000          272697            4886          1.7917

ENER_1:   910000      58550.6569      58550.6569          0.0000          0.0000          0.0000          0.0000          0.0000          0.0000          0.0000          0.0000

STAT_1:   910000             387

Steps/sec. : 1819.1089
MOVE_0:   920000          184054           92282         50.1385          0.3787          183437           92039         50.1747          0.8497               0               0          0.0000          276794            4934          1.7826

ENER_0:   920000    -262507.6695      19077.2892          0.0000    -194835.6960     -14657.7008     -72091.5619     -35438.6791      30800.4507   -1818490.9668    1751037.6334

STAT_0:   920000             135

MOVE_1:   920000          275715            4939          1.7913

ENER_1:   920000      58920.5893      58920.5893          0.0000          0.0000          0.0000          0.0000          0.0000          0.0000          0.0000          0.0000

STAT_1:   920000             395

Steps/sec. : 1870.6344
MOVE_0:   930000          186090           93307         50.1408          0.3835          185430           93040         50.1753          0.8675               0               0          0.0000          279698            5022          1.7955

ENER_0:   930000    -246365.0830      16090.5425          0.0000    -178281.7967     -13592.0518     -70581.7770     -34003.0099      28337.6373   -1751139.4495    1686223.0450

STAT_0:   930000             130

MOVE_1:   930000          278782            5022          1.8014

ENER_1:   930000      57191.1963      57191.1963          0.0000          0.0000          0.0000          0.0000          0.0000          0.0000          0.0000          0.0000

STAT_1:   930000             400

Steps/sec. : 1847.8701
MOVE_0:   940000          188089           94308         50.1401          0.3787          187425           94016         50.1619          0.6969               0               0          0.0000          282721            5067          1.7922

ENER_0:   940000    -284853.6580      19223.8952          0.0000    -205277.7212     -15989.5610     -82810.2710     -42580.5959      30684.0829   -1899312.7875    1828399.0295

STAT_0:   940000             141

MOVE_1:   940000          281765            5078          1.8022

ENER_1:   940000      54339.3424      54339.3424          0.0000          0.0000          0.0000          0.0000          0.0000          0.0000          0.0000          0.0000

STAT_1:   940000             389

Steps/sec. : 1772.9770
MOVE_0:   950000          190093           95308         50.1376          0.3546          189418           95014         50.1610          0.6633               0               0          0.0000          285686            5112          1.7894

ENER_0:   950000    -271271.4418      20450.2716          0.0000    -194552.0654     -15316.3925     -81853.2555     -43032.0370      30493.6199   -1858901.8772    1789587.0387

STAT_0:   950000             138

MOVE_1:   950000          284803            5120          1.7977

ENER_1:   950000      58432.3077      58432.3077          0.0000          0.0000          0.0000          0.0000          0.0000          0.0000          0.0000          0.0000

STAT_1:   950000             392

Steps/sec. : 1803.3507
MOVE_0:   960000          192053           96283         50.1336          0.3330          191386           96017         50.1693          0.7786               0               0          0.0000          288722            5181          1.7945

ENER_0:   960000    -283297.2870      20343.2784          0.0000    -206030.5882     -15989.5610     -81620.4162     -40126.8346      29193.8088   -1899312.7875    1828625.3971

STAT_0:   960000             141

MOVE_1:   960000          287839            5192          1.8038

ENER_1:   960000      59427.7427      59427.7427          0.0000          0.0000          0.0000          0.0000          0.0000          0.0000          0.0000          0.0000

STAT_1:   960000             389

Steps/sec. : 2124.2026
MOVE_0:   970000          194081           97307         50.1373          0.3608          193322           96988         50.1691          0.7748               0               0          0.0000          291748            5224          1.7906

ENER_0:   970000    -279371.5385      19326.0784          0.0000    -202814.8883     -15316.3925     -80566.3361     -39848.4352      28377.0133   -1858901.8772    1789806.9630

STAT_0:   970000             138

MOVE_1:   970000          290849            5232          1.7989

ENER_1:   970000      60841.2444      60841.2444          0.0000          0.0000          0.0000          0.0000          0.0000          0.0000          0.0000          0.0000

STAT_1:   970000             392

Steps/sec. : 2222.1061
MOVE_0:   980000          196058           98293         50.1347          0.3286          195364           98006         50.1658          0.6991               0               0          0.0000          294767            5260          1.7845

ENER_0:   980000    -290593.2221      19676.5584          0.0000    -216029.1545     -16217.1676     -78023.4584     -39371.0363      32314.4815   -1912783.0910    1841816.1874

STAT_0:   980000             142

MOVE_1:   980000          293811            5272          1.7944

ENER_1:   980000      59327.3962      59327.3962          0.0000          0.0000          0.0000          0.0000          0.0000          0.0000          0.0000          0.0000

STAT_1:   980000             388

Steps/sec. : 2214.0598
MOVE_0:   990000          198114           99337         50.1413          0.3609          197367           99019         50.1700          0.7339               0               0          0.0000          297681            5299          1.7801

ENER_0:   990000    -287569.5584      20089.6876          0.0000    -208763.0358     -16217.1676     -82679.0426     -43115.4816      31299.9314   -1912783.0910    1841919.5986

STAT_0:   990000             142

MOVE_1:   990000          296838            5311          1.7892

ENER_1:   990000      56280.4821      56280.4821          0.0000          0.0000          0.0000          0.0000          0.0000          0.0000          0.0000          0.0000

STAT_1:   990000             388

Steps/sec. : 2213.9249
MOVE_0:  1000000          200148          100342         50.1339          0.3071          199436          100043         50.1630          0.6606               0               0          0.0000          300651            5345          1.7778

ENER_0:  1000000    -278967.2663      19157.6784          0.0000    -203076.1243     -15763.5630     -79285.2574     -41258.7133      31506.5366   -1885842.4841    1816309.4033

STAT_0:  1000000             140

MOVE_1:  1000000          299765            5355          1.7864

ENER_1:  1000000      58137.3072      58137.3072          0.0000          0.0000          0.0000          0.0000          0.0000          0.0000          0.0000          0.0000

STAT_1:  1000000             390

Simulation Time (total): 388.1930sec.
GOMC Serial Version 2.0
Completed at: Mon Apr 24 19:26:33 2017
On hostname: potoff13.eng.wayne.edu
