GOMC Serial Version 1.9
Started at: Sat Apr 22 21:44:26 2017
On hostname: potoff39.eng.wayne.edu

Total number of CPUs: 4
Total number of CPUs available: 4
Model name: Intel(R) Core(TM) i5-2500K CPU @ 3.30GHz

System name: Linux
Release: 2.6.32-642.4.2.el6.x86_64
Version: #1 SMP Tue Aug 23 19:58:13 UTC 2016
Kernel Architecture: x86_64
Total Ram: 7856.3MB
Used Ram: 5235.9MB
Working in the current directory /home3/soroush/Desktop/validation/GOMC_Examples/GCMC/argon/run2a_bridge

------------------------------------------------------
This code was compiled to support the grand canonical ensemble.
------------------------------------------------------

REMINDER: EXOTIC force field has been selected!
Temperature of system has been set to 150.00000 K 
Warning: Pressure calculation is turned off.
By default intra box swap frequency has been set to zero
Warning: Electrostatic energy would not be calculated!
Reading from Exotic Parameter File file: ./../../../common/Par_Vrabec01_Noble_Gases_Exotic.inp
Finished reading Exotic Parameter File file: ./../../../common/Par_Vrabec01_Noble_Gases_Exotic.inp
Reading from Box 1 PDB coordinate file file: ./STEP3_START_AR_vap_BOX_0.pdb
Finished reading Box 1 PDB coordinate file file: ./STEP3_START_AR_vap_BOX_0.pdb
Reading from Box 2 PDB coordinate file file: ./STEP3_START_AR_reservoir_BOX_1.pdb
Finished reading Box 2 PDB coordinate file file: ./STEP3_START_AR_reservoir_BOX_1.pdb
Random number seed: 4275128404

Molecules in PSF:
Molecule Kind: AR
Idx	name	type	charge	mass
0	AR	AR	0.0000	39.9480
Bonds:
Angles:
Dihedrals:

REMINDER! 1-3 and 1-4 Interaction is OFF
Minimum coordinates in box 0: x =    1.000, y =   23.108, z =   22.525
Maximum coordinates in box 0: x =    5.850, y =   24.000, z =   24.000
Minimum coordinates in box 1: x =    1.000, y =    1.000, z =    1.000
Maximum coordinates in box 1: x =   23.970, y =   23.997, z =   24.000

###############################################################################
########################## INITIAL SIMULATION ENERGY ##########################

ETITLE:     STEP           TOTAL        INTRA(B)       INTRA(NB)       INTER(LJ)             LRC     TOTAL_ELECT            REAL           RECIP            SELF            CORR

ENER_0:        0        -35.6932          0.0000          0.0000        -35.3097         -0.3835          0.0000          0.0000          0.0000          0.0000         -0.0000

ENER_1:        0          0.0000          0.0000          0.0000          0.0000          0.0000          0.0000          0.0000          0.0000          0.0000         -0.0000

###############################################################################
############################# STARTING SIMULATION #############################

MTITLE:     STEP          DISTRY       DISACCEPT      DISACCEPT%          DISMAX          ROTATE       ROTACCEPT      ROTACCEPT%          ROTMAX       INTRASWAP       INTACCEPT      INTACCEPT%        TRANSFER      TRANACCEPT     TRANACCEPT%

ETITLE:     STEP           TOTAL        INTRA(B)       INTRA(NB)       INTER(LJ)             LRC     TOTAL_ELECT            REAL           RECIP            SELF            CORR

STITLE:     STEP        TOTALMOL

Printed combined psf to file AR_150_00_K_u_968_r2a_merged.psf
MOVE_0:    10000            2980            1385         46.4765          2.0899               0               0          0.0000          0.7854               0               0          0.0000            3518            2792         79.3633

ENER_0:    10000      -8854.8178          0.0000          0.0000      -8462.1416       -392.6762          0.0000          0.0000          0.0000          0.0000          0.0000

STAT_0:    10000              64

MOVE_1:    10000            3502            2854         81.4963

ENER_1:    10000          0.0000          0.0000          0.0000          0.0000          0.0000          0.0000          0.0000          0.0000          0.0000          0.0000

STAT_1:    10000             538

Steps/sec. : 35671.9777
MOVE_0:    20000            6022            2931         48.6715          2.1997               0               0          0.0000          0.7854               0               0          0.0000            6994            5546         79.2965

ENER_0:    20000     -16090.9135          0.0000          0.0000     -15430.4774       -660.4361          0.0000          0.0000          0.0000          0.0000          0.0000

STAT_0:    20000              83

MOVE_1:    20000            6984            5627         80.5699

ENER_1:    20000          0.0000          0.0000          0.0000          0.0000          0.0000          0.0000          0.0000          0.0000          0.0000          0.0000

STAT_1:    20000             519

Steps/sec. : 40869.0424
MOVE_0:    30000            8977            4348         48.4349          1.2151               0               0          0.0000          0.7854               0               0          0.0000           10518            8276         78.6842

ENER_0:    30000     -11133.1618          0.0000          0.0000     -10740.4856       -392.6762          0.0000          0.0000          0.0000          0.0000          0.0000

STAT_0:    30000              64

MOVE_1:    30000           10505            8338         79.3717

ENER_1:    30000          0.0000          0.0000          0.0000          0.0000          0.0000          0.0000          0.0000          0.0000          0.0000          0.0000

STAT_1:    30000             538

Steps/sec. : 38986.2090
MOVE_0:    40000           11981            6015         50.2045          3.0903               0               0          0.0000          0.7854               0               0          0.0000           14074           11128         79.0678

ENER_0:    40000      -2453.9067          0.0000          0.0000      -2300.5176       -153.3891          0.0000          0.0000          0.0000          0.0000          0.0000

STAT_0:    40000              40

MOVE_1:    40000           13945           11166         80.0717

ENER_1:    40000          0.0000          0.0000          0.0000          0.0000          0.0000          0.0000          0.0000          0.0000          0.0000          0.0000

STAT_1:    40000             562

Steps/sec. : 44471.5123
MOVE_0:    50000           15036            7362         48.9625          0.7745               0               0          0.0000          0.7854               0               0          0.0000           17427           13143         75.4175

ENER_0:    50000     -73049.1710          0.0000          0.0000     -69441.0752      -3608.0959          0.0000          0.0000          0.0000          0.0000          0.0000

STAT_0:    50000             194

MOVE_1:    50000           17537           13335         76.0392

ENER_1:    50000          0.0000          0.0000          0.0000          0.0000          0.0000          0.0000          0.0000          0.0000          0.0000          0.0000

STAT_1:    50000             408

Steps/sec. : 22386.8383
MOVE_0:    60000           18034            8830         48.9631          0.6101               0               0          0.0000          0.7854               0               0          0.0000           20865           14281         68.4448

ENER_0:    60000     -96540.8247          0.0000          0.0000     -91900.8034      -4640.0213          0.0000          0.0000          0.0000          0.0000          0.0000

STAT_0:    60000             220

MOVE_1:    60000           21101           14499         68.7124

ENER_1:    60000          0.0000          0.0000          0.0000          0.0000          0.0000          0.0000          0.0000          0.0000          0.0000          0.0000

STAT_1:    60000             382

Steps/sec. : 14696.6521
MOVE_0:    70000           21061           10345         49.1192          0.6050               0               0          0.0000          0.7854               0               0          0.0000           24359           15572         63.9271

ENER_0:    70000     -75729.8945          0.0000          0.0000     -72084.5059      -3645.3886          0.0000          0.0000          0.0000          0.0000          0.0000

STAT_0:    70000             195

MOVE_1:    70000           24580           15765         64.1375

ENER_1:    70000          0.0000          0.0000          0.0000          0.0000          0.0000          0.0000          0.0000          0.0000          0.0000          0.0000

STAT_1:    70000             407

Steps/sec. : 15101.7494
MOVE_0:    80000           24084           11902         49.4187          0.7855               0               0          0.0000          0.7854               0               0          0.0000           27908           17029         61.0183

ENER_0:    80000     -66545.0035          0.0000          0.0000     -63334.4731      -3210.5304          0.0000          0.0000          0.0000          0.0000          0.0000

STAT_0:    80000             183

MOVE_1:    80000           28008           17210         61.4467

ENER_1:    80000          0.0000          0.0000          0.0000          0.0000          0.0000          0.0000          0.0000          0.0000          0.0000          0.0000

STAT_1:    80000             419

Steps/sec. : 16111.6502
MOVE_0:    90000           27095           13404         49.4704          0.7362               0               0          0.0000          0.7854               0               0          0.0000           31458           18654         59.2981

ENER_0:    90000     -62436.3822          0.0000          0.0000     -59533.8764      -2902.5059          0.0000          0.0000          0.0000          0.0000          0.0000

STAT_0:    90000             174

MOVE_1:    90000           31447           18826         59.8658

ENER_1:    90000          0.0000          0.0000          0.0000          0.0000          0.0000          0.0000          0.0000          0.0000          0.0000          0.0000

STAT_1:    90000             428

Steps/sec. : 16970.5513
MOVE_0:   100000           30098           14902         49.5116          0.7186               0               0          0.0000          0.7854               0               0          0.0000           34942           20220         57.8673

ENER_0:   100000     -83677.0387          0.0000          0.0000     -79648.1773      -4028.8614          0.0000          0.0000          0.0000          0.0000          0.0000

STAT_0:   100000             205

MOVE_1:   100000           34960           20423         58.4182

ENER_1:   100000          0.0000          0.0000          0.0000          0.0000          0.0000          0.0000          0.0000          0.0000          0.0000          0.0000

STAT_1:   100000             397

Steps/sec. : 16691.3955
MOVE_0:   110000           33159           16428         49.5431          0.6937               0               0          0.0000          0.7854               0               0          0.0000           38394           21223         55.2769

ENER_0:   110000    -104918.4637          0.0000          0.0000     -99978.4708      -4939.9929          0.0000          0.0000          0.0000          0.0000          0.0000

STAT_0:   110000             227

MOVE_1:   110000           38447           21448         55.7859

ENER_1:   110000          0.0000          0.0000          0.0000          0.0000          0.0000          0.0000          0.0000          0.0000          0.0000          0.0000

STAT_1:   110000             375

Steps/sec. : 14190.9015
MOVE_0:   120000           36178           17966         49.6600          0.8044               0               0          0.0000          0.7854               0               0          0.0000           41872           22513         53.7662

ENER_0:   120000     -71407.4039          0.0000          0.0000     -67836.4091      -3570.9949          0.0000          0.0000          0.0000          0.0000          0.0000

STAT_0:   120000             193

MOVE_1:   120000           41950           22704         54.1216

ENER_1:   120000          0.0000          0.0000          0.0000          0.0000          0.0000          0.0000          0.0000          0.0000          0.0000          0.0000

STAT_1:   120000             409

Steps/sec. : 15125.5921
MOVE_0:   130000           39214           19480         49.6761          0.7702               0               0          0.0000          0.7854               0               0          0.0000           45361           24041         52.9993

ENER_0:   130000     -71488.6727          0.0000          0.0000     -67954.5871      -3534.0856          0.0000          0.0000          0.0000          0.0000          0.0000

STAT_0:   130000             192

MOVE_1:   130000           45425           24231         53.3429

ENER_1:   130000          0.0000          0.0000          0.0000          0.0000          0.0000          0.0000          0.0000          0.0000          0.0000          0.0000

STAT_1:   130000             410

Steps/sec. : 16496.9396
MOVE_0:   140000           42217           21021         49.7927          0.9663               0               0          0.0000          0.7854               0               0          0.0000           48901           25933         53.0316

ENER_0:   140000     -42460.8425          0.0000          0.0000     -40472.9193      -1987.9232          0.0000          0.0000          0.0000          0.0000          0.0000

STAT_0:   140000             144

MOVE_1:   140000           48882           26075         53.3427

ENER_1:   140000          0.0000          0.0000          0.0000          0.0000          0.0000          0.0000          0.0000          0.0000          0.0000          0.0000

STAT_1:   140000             458

Steps/sec. : 18790.3208
MOVE_0:   150000           45119           22576         50.0366          1.6999               0               0          0.0000          0.7854               0               0          0.0000           52444           28370         54.0958

ENER_0:   150000     -11922.2620          0.0000          0.0000     -11465.8335       -456.4285          0.0000          0.0000          0.0000          0.0000          0.0000

STAT_0:   150000              69

MOVE_1:   150000           52437           28437         54.2308

ENER_1:   150000          0.0000          0.0000          0.0000          0.0000          0.0000          0.0000          0.0000          0.0000          0.0000          0.0000

STAT_1:   150000             533

Steps/sec. : 28140.1538
MOVE_0:   160000           48155           24141         50.1319          2.0327               0               0          0.0000          0.7854               0               0          0.0000           55941           31190         55.7552

ENER_0:   160000     -10575.5676          0.0000          0.0000     -10145.2152       -430.3524          0.0000          0.0000          0.0000          0.0000          0.0000

STAT_0:   160000              67

MOVE_1:   160000           55904           31255         55.9083

ENER_1:   160000          0.0000          0.0000          0.0000          0.0000          0.0000          0.0000          0.0000          0.0000          0.0000          0.0000

STAT_1:   160000             535

Steps/sec. : 43634.8050
MOVE_0:   170000           51173           25644         50.1124          1.8250               0               0          0.0000          0.7854               0               0          0.0000           59426           33862         56.9818

ENER_0:   170000     -15430.2794          0.0000          0.0000     -14737.6316       -692.6478          0.0000          0.0000          0.0000          0.0000          0.0000

STAT_0:   170000              85

MOVE_1:   170000           59401           33945         57.1455

ENER_1:   170000          0.0000          0.0000          0.0000          0.0000          0.0000          0.0000          0.0000          0.0000          0.0000          0.0000

STAT_1:   170000             517

Steps/sec. : 37529.6305
MOVE_0:   180000           54082           27115         50.1368          1.7977               0               0          0.0000          0.7854               0               0          0.0000           62989           36431         57.8371

ENER_0:   180000      -7088.2502          0.0000          0.0000      -6818.9564       -269.2938          0.0000          0.0000          0.0000          0.0000          0.0000

STAT_0:   180000              53

MOVE_1:   180000           62929           36482         57.9733

ENER_1:   180000          0.0000          0.0000          0.0000          0.0000          0.0000          0.0000          0.0000          0.0000          0.0000          0.0000

STAT_1:   180000             549

Steps/sec. : 30054.0489
MOVE_0:   190000           57031           28650         50.2358          2.5847               0               0          0.0000          0.7854               0               0          0.0000           66555           39253         58.9783

ENER_0:   190000      -7211.9137          0.0000          0.0000      -6855.1881       -356.7256          0.0000          0.0000          0.0000          0.0000          0.0000

STAT_0:   190000              61

MOVE_1:   190000           66414           39312         59.1923

ENER_1:   190000          0.0000          0.0000          0.0000          0.0000          0.0000          0.0000          0.0000          0.0000          0.0000          0.0000

STAT_1:   190000             541

Steps/sec. : 45735.3712
MOVE_0:   200000           59993           30071         50.1242          1.6238               0               0          0.0000          0.7854               0               0          0.0000           70057           41972         59.9112

ENER_0:   200000     -14725.3196          0.0000          0.0000     -14032.6718       -692.6478          0.0000          0.0000          0.0000          0.0000          0.0000

STAT_0:   200000              85

MOVE_1:   200000           69950           42055         60.1215

ENER_1:   200000          0.0000          0.0000          0.0000          0.0000          0.0000          0.0000          0.0000          0.0000          0.0000          0.0000

STAT_1:   200000             517

Steps/sec. : 37439.1814
MOVE_0:   210000           63016           31629         50.1920          2.1390               0               0          0.0000          0.7854               0               0          0.0000           73594           44753         60.8107

ENER_0:   210000      -6925.4102          0.0000          0.0000      -6695.2306       -230.1796          0.0000          0.0000          0.0000          0.0000          0.0000

STAT_0:   210000              49

MOVE_1:   210000           73390           44800         61.0437

ENER_1:   210000          0.0000          0.0000          0.0000          0.0000          0.0000          0.0000          0.0000          0.0000          0.0000          0.0000

STAT_1:   210000             553

Steps/sec. : 44590.2755
MOVE_0:   220000           66065           33098         50.0991          1.2463               0               0          0.0000          0.7854               0               0          0.0000           77092           47414         61.5031

ENER_0:   220000     -14441.4136          0.0000          0.0000     -13827.8570       -613.5565          0.0000          0.0000          0.0000          0.0000          0.0000

STAT_0:   220000              80

MOVE_1:   220000           76843           47492         61.8039

ENER_1:   220000          0.0000          0.0000          0.0000          0.0000          0.0000          0.0000          0.0000          0.0000          0.0000          0.0000

STAT_1:   220000             522

Steps/sec. : 39412.7420
MOVE_0:   230000           69037           34533         50.0210          0.8439               0               0          0.0000          0.7854               0               0          0.0000           80546           49724         61.7337

ENER_0:   230000     -65033.7756          0.0000          0.0000     -61717.1191      -3316.6565          0.0000          0.0000          0.0000          0.0000          0.0000

STAT_0:   230000             186

MOVE_1:   230000           80417           49908         62.0615

ENER_1:   230000          0.0000          0.0000          0.0000          0.0000          0.0000          0.0000          0.0000          0.0000          0.0000          0.0000

STAT_1:   230000             416

Steps/sec. : 24896.5036
MOVE_0:   240000           72011           36006         50.0007          0.7514               0               0          0.0000          0.7854               0               0          0.0000           84038           51454         61.2271

ENER_0:   240000     -56218.0838          0.0000          0.0000     -53544.4153      -2673.6684          0.0000          0.0000          0.0000          0.0000          0.0000

STAT_0:   240000             167

MOVE_1:   240000           83951           51619         61.4871

ENER_1:   240000          0.0000          0.0000          0.0000          0.0000          0.0000          0.0000          0.0000          0.0000          0.0000          0.0000

STAT_1:   240000             435

Steps/sec. : 17309.7826
MOVE_0:   250000           74996           37487         49.9853          0.6552               0               0          0.0000          0.7854               0               0          0.0000           87546           53041         60.5864

ENER_0:   250000     -84796.7462          0.0000          0.0000     -80846.1132      -3950.6330          0.0000          0.0000          0.0000          0.0000          0.0000

STAT_0:   250000             203

MOVE_1:   250000           87458           53242         60.8772

ENER_1:   250000          0.0000          0.0000          0.0000          0.0000          0.0000          0.0000          0.0000          0.0000          0.0000          0.0000

STAT_1:   250000             399

Steps/sec. : 16642.6172
MOVE_0:   260000           77988           39019         50.0321          0.8134               0               0          0.0000          0.7854               0               0          0.0000           91071           54633         59.9895

ENER_0:   260000     -62066.4561          0.0000          0.0000     -59096.8425      -2969.6136          0.0000          0.0000          0.0000          0.0000          0.0000

STAT_0:   260000             176

MOVE_1:   260000           90941           54807         60.2665

ENER_1:   260000          0.0000          0.0000          0.0000          0.0000          0.0000          0.0000          0.0000          0.0000          0.0000          0.0000

STAT_1:   260000             426

Steps/sec. : 16666.4177
MOVE_0:   270000           80922           40559         50.1211          1.2784               0               0          0.0000          0.7854               0               0          0.0000           94681           56766         59.9550

ENER_0:   270000     -19640.7833          0.0000          0.0000     -18793.6918       -847.0915          0.0000          0.0000          0.0000          0.0000          0.0000

STAT_0:   270000              94

MOVE_1:   270000           94397           56858         60.2328

ENER_1:   270000          0.0000          0.0000          0.0000          0.0000          0.0000          0.0000          0.0000          0.0000          0.0000          0.0000

STAT_1:   270000             508

Steps/sec. : 20911.7959
MOVE_0:   280000           83927           42109         50.1734          1.6407               0               0          0.0000          0.7854               0               0          0.0000           98145           59380         60.5023

ENER_0:   280000     -15861.2067          0.0000          0.0000     -15200.7707       -660.4361          0.0000          0.0000          0.0000          0.0000          0.0000

STAT_0:   280000              83

MOVE_1:   280000           97928           59461         60.7191

ENER_1:   280000          0.0000          0.0000          0.0000          0.0000          0.0000          0.0000          0.0000          0.0000          0.0000          0.0000

STAT_1:   280000             519

Steps/sec. : 33294.7067
MOVE_0:   290000           86941           43694         50.2571          2.5687               0               0          0.0000          0.7854               0               0          0.0000          101676           62131         61.1068

ENER_0:   290000      -3876.3729          0.0000          0.0000      -3682.2398       -194.1331          0.0000          0.0000          0.0000          0.0000          0.0000

STAT_0:   290000              45

MOVE_1:   290000          101383           62174         61.3259

ENER_1:   290000          0.0000          0.0000          0.0000          0.0000          0.0000          0.0000          0.0000          0.0000          0.0000          0.0000

STAT_1:   290000             557

Steps/sec. : 41773.5230
MOVE_0:   300000           89969           45175         50.2117          1.7944               0               0          0.0000          0.7854               0               0          0.0000          105111           64796         61.6453

ENER_0:   300000      -5362.9137          0.0000          0.0000      -5093.6199       -269.2938          0.0000          0.0000          0.0000          0.0000          0.0000

STAT_0:   300000              53

MOVE_1:   300000          104920           64847         61.8061

ENER_1:   300000          0.0000          0.0000          0.0000          0.0000          0.0000          0.0000          0.0000          0.0000          0.0000          0.0000

STAT_1:   300000             549

Steps/sec. : 35871.7468
MOVE_0:   310000           92957           46729         50.2695          2.4360               0               0          0.0000          0.7854               0               0          0.0000          108709           67672         62.2506

ENER_0:   310000      -6843.7652          0.0000          0.0000      -6521.2646       -322.5007          0.0000          0.0000          0.0000          0.0000          0.0000

STAT_0:   310000              58

MOVE_1:   310000          108334           67728         62.5178

ENER_1:   310000          0.0000          0.0000          0.0000          0.0000          0.0000          0.0000          0.0000          0.0000          0.0000          0.0000

STAT_1:   310000             544

Steps/sec. : 51508.4091
MOVE_0:   320000           95984           48231         50.2490          2.1332               0               0          0.0000          0.7854               0               0          0.0000          112209           70491         62.8212

ENER_0:   320000      -5266.8609          0.0000          0.0000      -5072.7278       -194.1331          0.0000          0.0000          0.0000          0.0000          0.0000

STAT_0:   320000              45

MOVE_1:   320000          111807           70534         63.0855

ENER_1:   320000          0.0000          0.0000          0.0000          0.0000          0.0000          0.0000          0.0000          0.0000          0.0000          0.0000

STAT_1:   320000             557

Steps/sec. : 46113.1438
MOVE_0:   330000           98889           49701         50.2594          2.1363               0               0          0.0000          0.7854               0               0          0.0000          115733           73293         63.3294

ENER_0:   330000     -16203.3413          0.0000          0.0000     -15409.4566       -793.8846          0.0000          0.0000          0.0000          0.0000          0.0000

STAT_0:   330000              91

MOVE_1:   330000          115378           73382         63.6014

ENER_1:   330000          0.0000          0.0000          0.0000          0.0000          0.0000          0.0000          0.0000          0.0000          0.0000          0.0000

STAT_1:   330000             511

Steps/sec. : 41018.0822
MOVE_0:   340000          101854           51214         50.2818          1.9442               0               0          0.0000          0.7854               0               0          0.0000          119324           76052         63.7357

ENER_0:   340000     -13289.0825          0.0000          0.0000     -12660.0912       -628.9913          0.0000          0.0000          0.0000          0.0000          0.0000

STAT_0:   340000              81

MOVE_1:   340000          118822           76131         64.0715

ENER_1:   340000          0.0000          0.0000          0.0000          0.0000          0.0000          0.0000          0.0000          0.0000          0.0000          0.0000

STAT_1:   340000             521

Steps/sec. : 41259.3722
MOVE_0:   350000          104798           52716         50.3025          2.2963               0               0          0.0000          0.7854               0               0          0.0000          122837           78776         64.1305

ENER_0:   350000      -7435.9666          0.0000          0.0000      -7090.8411       -345.1255          0.0000          0.0000          0.0000          0.0000          0.0000

STAT_0:   350000              60

MOVE_1:   350000          122365           78834         64.4253

ENER_1:   350000          0.0000          0.0000          0.0000          0.0000          0.0000          0.0000          0.0000          0.0000          0.0000          0.0000

STAT_1:   350000             542

Steps/sec. : 38074.0675
MOVE_0:   360000          107807           54228         50.3010          2.2022               0               0          0.0000          0.7854               0               0          0.0000          126373           81614         64.5818

ENER_0:   360000     -11463.8103          0.0000          0.0000     -10938.8360       -524.9743          0.0000          0.0000          0.0000          0.0000          0.0000

STAT_0:   360000              74

MOVE_1:   360000          125820           81686         64.9229

ENER_1:   360000          0.0000          0.0000          0.0000          0.0000          0.0000          0.0000          0.0000          0.0000          0.0000          0.0000

STAT_1:   360000             528

Steps/sec. : 47011.9113
MOVE_0:   370000          110789           55771         50.3398          2.7715               0               0          0.0000          0.7854               0               0          0.0000          129917           84422         64.9815

ENER_0:   370000     -12046.5977          0.0000          0.0000     -11478.1951       -568.4026          0.0000          0.0000          0.0000          0.0000          0.0000

STAT_0:   370000              77

MOVE_1:   370000          129294           84497         65.3526

ENER_1:   370000          0.0000          0.0000          0.0000          0.0000          0.0000          0.0000          0.0000          0.0000          0.0000          0.0000

STAT_1:   370000             525

Steps/sec. : 42696.5487
MOVE_0:   380000          113882           57284         50.3012          1.9976               0               0          0.0000          0.7854               0               0          0.0000          133394           87195         65.3665

ENER_0:   380000      -3516.5980          0.0000          0.0000      -3322.4649       -194.1331          0.0000          0.0000          0.0000          0.0000          0.0000

STAT_0:   380000              45

MOVE_1:   380000          132724           87238         65.7289

ENER_1:   380000          0.0000          0.0000          0.0000          0.0000          0.0000          0.0000          0.0000          0.0000          0.0000          0.0000

STAT_1:   380000             557

Steps/sec. : 43213.5174
MOVE_0:   390000          116849           58800         50.3214          2.2573               0               0          0.0000          0.7854               0               0          0.0000          136932           90005         65.7297

ENER_0:   390000      -8121.3332          0.0000          0.0000      -7776.2077       -345.1255          0.0000          0.0000          0.0000          0.0000          0.0000

STAT_0:   390000              60

MOVE_1:   390000          136219           90063         66.1163

ENER_1:   390000          0.0000          0.0000          0.0000          0.0000          0.0000          0.0000          0.0000          0.0000          0.0000          0.0000

STAT_1:   390000             542

Steps/sec. : 45237.6530
MOVE_0:   400000          119927           60373         50.3415          2.3112               0               0          0.0000          0.7854               0               0          0.0000          140390           92666         66.0061

ENER_0:   400000     -11723.6231          0.0000          0.0000     -11240.3515       -483.2716          0.0000          0.0000          0.0000          0.0000          0.0000

STAT_0:   400000              71

MOVE_1:   400000          139683           92735         66.3896

ENER_1:   400000          0.0000          0.0000          0.0000          0.0000          0.0000          0.0000          0.0000          0.0000          0.0000          0.0000

STAT_1:   400000             531

Steps/sec. : 37963.1710
MOVE_0:   410000          122900           61870         50.3417          2.0755               0               0          0.0000          0.7854               0               0          0.0000          143958           95429         66.2895

ENER_0:   410000      -5543.4985          0.0000          0.0000      -5313.3190       -230.1796          0.0000          0.0000          0.0000          0.0000          0.0000

STAT_0:   410000              49

MOVE_1:   410000          143142           95476         66.7002

ENER_1:   410000          0.0000          0.0000          0.0000          0.0000          0.0000          0.0000          0.0000          0.0000          0.0000          0.0000

STAT_1:   410000             553

Steps/sec. : 42098.1718
MOVE_0:   420000          125925           63367         50.3212          1.7903               0               0          0.0000          0.7854               0               0          0.0000          147427           98216         66.6201

ENER_0:   420000      -7066.1550          0.0000          0.0000      -6754.6792       -311.4758          0.0000          0.0000          0.0000          0.0000          0.0000

STAT_0:   420000              57

MOVE_1:   420000          146648           98271         67.0115

ENER_1:   420000          0.0000          0.0000          0.0000          0.0000          0.0000          0.0000          0.0000          0.0000          0.0000          0.0000

STAT_1:   420000             545

Steps/sec. : 43091.3822
MOVE_0:   430000          128924           64940         50.3708          2.6585               0               0          0.0000          0.7854               0               0          0.0000          150935          100979         66.9023

ENER_0:   430000      -6165.3140          0.0000          0.0000      -5906.0864       -259.2276          0.0000          0.0000          0.0000          0.0000          0.0000

STAT_0:   430000              52

MOVE_1:   430000          150141          101029         67.2894

ENER_1:   430000          0.0000          0.0000          0.0000          0.0000          0.0000          0.0000          0.0000          0.0000          0.0000          0.0000

STAT_1:   430000             550

Steps/sec. : 41549.1129
MOVE_0:   440000          131933           66291         50.2460          0.7795               0               0          0.0000          0.7854               0               0          0.0000          154383          103387         66.9679

ENER_0:   440000     -65023.9849          0.0000          0.0000     -61883.2466      -3140.7384          0.0000          0.0000          0.0000          0.0000          0.0000

STAT_0:   440000             181

MOVE_1:   440000          153684          103566         67.3889

ENER_1:   440000          0.0000          0.0000          0.0000          0.0000          0.0000          0.0000          0.0000          0.0000          0.0000          0.0000

STAT_1:   440000             421

Steps/sec. : 29286.1921
MOVE_0:   450000          134967           67804         50.2375          0.7549               0               0          0.0000          0.7854               0               0          0.0000          157855          105181         66.6314

ENER_0:   450000     -58000.4581          0.0000          0.0000     -55421.9868      -2578.4713          0.0000          0.0000          0.0000          0.0000          0.0000

STAT_0:   450000             164

MOVE_1:   450000          157178          105343         67.0215

ENER_1:   450000          0.0000          0.0000          0.0000          0.0000          0.0000          0.0000          0.0000          0.0000          0.0000          0.0000

STAT_1:   450000             438

Steps/sec. : 18055.6266
MOVE_0:   460000          137924           69304         50.2480          0.8529               0               0          0.0000          0.7854               0               0          0.0000          161421          107050         66.3173

ENER_0:   460000     -37140.1515          0.0000          0.0000     -35494.9572      -1645.1943          0.0000          0.0000          0.0000          0.0000          0.0000

STAT_0:   460000             131

MOVE_1:   460000          160655          107179         66.7138

ENER_1:   460000          0.0000          0.0000          0.0000          0.0000          0.0000          0.0000          0.0000          0.0000          0.0000          0.0000

STAT_1:   460000             471

Steps/sec. : 18327.4387
MOVE_0:   470000          140937           70798         50.2338          0.7641               0               0          0.0000          0.7854               0               0          0.0000          164879          108626         65.8823

ENER_0:   470000     -66947.4616          0.0000          0.0000     -63806.7233      -3140.7384          0.0000          0.0000          0.0000          0.0000          0.0000

STAT_0:   470000             181

MOVE_1:   470000          164184          108805         66.2702

ENER_1:   470000          0.0000          0.0000          0.0000          0.0000          0.0000          0.0000          0.0000          0.0000          0.0000          0.0000

STAT_1:   470000             421

Steps/sec. : 17354.1800
MOVE_0:   480000          144007           72325         50.2233          0.7010               0               0          0.0000          0.7854               0               0          0.0000          168312          109952         65.3263

ENER_0:   480000     -85034.4684          0.0000          0.0000     -80926.6116      -4107.8568          0.0000          0.0000          0.0000          0.0000          0.0000

STAT_0:   480000             207

MOVE_1:   480000          167681          110157         65.6944

ENER_1:   480000          0.0000          0.0000          0.0000          0.0000          0.0000          0.0000          0.0000          0.0000          0.0000          0.0000

STAT_1:   480000             395

Steps/sec. : 15565.2670
MOVE_0:   490000          147027           73862         50.2370          0.8075               0               0          0.0000          0.7854               0               0          0.0000          171763          111680         65.0198

ENER_0:   490000     -47619.4293          0.0000          0.0000     -45286.3806      -2333.0487          0.0000          0.0000          0.0000          0.0000          0.0000

STAT_0:   490000             156

MOVE_1:   490000          171210          111834         65.3198

ENER_1:   490000          0.0000          0.0000          0.0000          0.0000          0.0000          0.0000          0.0000          0.0000          0.0000          0.0000

STAT_1:   490000             446

Steps/sec. : 17512.6126
MOVE_0:   500000          149976           75332         50.2294          0.7676               0               0          0.0000          0.7854               0               0          0.0000          175254          113225         64.6062

ENER_0:   500000     -79118.9374          0.0000          0.0000     -75245.7660      -3873.1715          0.0000          0.0000          0.0000          0.0000          0.0000

STAT_0:   500000             201

MOVE_1:   500000          174770          113424         64.8990

ENER_1:   500000          0.0000          0.0000          0.0000          0.0000          0.0000          0.0000          0.0000          0.0000          0.0000          0.0000

STAT_1:   500000             401

Steps/sec. : 15476.8567
MOVE_0:   510000          153004           76843         50.2229          0.7284               0               0          0.0000          0.7854               0               0          0.0000          178741          114681         64.1604

ENER_0:   510000     -91631.9399          0.0000          0.0000     -87200.4320      -4431.5079          0.0000          0.0000          0.0000          0.0000          0.0000

STAT_0:   510000             215

MOVE_1:   510000          178255          114894         64.4549

ENER_1:   510000          0.0000          0.0000          0.0000          0.0000          0.0000          0.0000          0.0000          0.0000          0.0000          0.0000

STAT_1:   510000             387

Steps/sec. : 3616.2650
MOVE_0:   520000          156055           78356         50.2105          0.6557               0               0          0.0000          0.7854               0               0          0.0000          182244          116073         63.6910

ENER_0:   520000     -72689.2513          0.0000          0.0000     -69228.4090      -3460.8423          0.0000          0.0000          0.0000          0.0000          0.0000

STAT_0:   520000             190

MOVE_1:   520000          181701          116261         63.9848

ENER_1:   520000          0.0000          0.0000          0.0000          0.0000          0.0000          0.0000          0.0000          0.0000          0.0000          0.0000

STAT_1:   520000             412

Steps/sec. : 3540.3207
MOVE_0:   530000          159066           79883         50.2200          0.7409               0               0          0.0000          0.7854               0               0          0.0000          185738          117434         63.2256

ENER_0:   530000     -75500.2398          0.0000          0.0000     -71892.1439      -3608.0959          0.0000          0.0000          0.0000          0.0000          0.0000

STAT_0:   530000             194

MOVE_1:   530000          185196          117626         63.5143

ENER_1:   530000          0.0000          0.0000          0.0000          0.0000          0.0000          0.0000          0.0000          0.0000          0.0000          0.0000

STAT_1:   530000             408

Steps/sec. : 3530.9325
MOVE_0:   540000          162034           81484         50.2882          1.5024               0               0          0.0000          0.7854               0               0          0.0000          189285          119599         63.1846

ENER_0:   540000     -28946.1827          0.0000          0.0000     -27611.3137      -1334.8689          0.0000          0.0000          0.0000          0.0000          0.0000

STAT_0:   540000             118

MOVE_1:   540000          188681          119715         63.4484

ENER_1:   540000          0.0000          0.0000          0.0000          0.0000          0.0000          0.0000          0.0000          0.0000          0.0000          0.0000

STAT_1:   540000             484

Steps/sec. : 3771.0887
MOVE_0:   550000          164989           82964         50.2846          1.4774               0               0          0.0000          0.7854               0               0          0.0000          192787          122162         63.3663

ENER_0:   550000      -8930.6698          0.0000          0.0000      -8550.1689       -380.5009          0.0000          0.0000          0.0000          0.0000          0.0000

STAT_0:   550000              63

MOVE_1:   550000          192224          122223         63.5836

ENER_1:   550000          0.0000          0.0000          0.0000          0.0000          0.0000          0.0000          0.0000          0.0000          0.0000          0.0000

STAT_1:   550000             539

Steps/sec. : 3884.2028
MOVE_0:   560000          167961           84535         50.3301          2.4114               0               0          0.0000          0.7854               0               0          0.0000          196340          124965         63.6472

ENER_0:   560000      -6515.7374          0.0000          0.0000      -6225.7361       -290.0013          0.0000          0.0000          0.0000          0.0000          0.0000

STAT_0:   560000              55

MOVE_1:   560000          195699          125018         63.8828

ENER_1:   560000          0.0000          0.0000          0.0000          0.0000          0.0000          0.0000          0.0000          0.0000          0.0000          0.0000

STAT_1:   560000             547

Steps/sec. : 4094.9319
MOVE_0:   570000          170995           86121         50.3646          3.1473               0               0          0.0000          0.7854               0               0          0.0000          199902          127841         63.9518

ENER_0:   570000      -4684.6166          0.0000          0.0000      -4444.9461       -239.6705          0.0000          0.0000          0.0000          0.0000          0.0000

STAT_0:   570000              50

MOVE_1:   570000          199103          127889         64.2326

ENER_1:   570000          0.0000          0.0000          0.0000          0.0000          0.0000          0.0000          0.0000          0.0000          0.0000          0.0000

STAT_1:   570000             552

Steps/sec. : 4395.6314
MOVE_0:   580000          174007           87488         50.2784          1.1439               0               0          0.0000          0.7854               0               0          0.0000          203350          130306         64.0797

ENER_0:   580000     -36521.1003          0.0000          0.0000     -34773.9022      -1747.1981          0.0000          0.0000          0.0000          0.0000          0.0000

STAT_0:   580000             135

MOVE_1:   580000          202643          130439         64.3689

ENER_1:   580000          0.0000          0.0000          0.0000          0.0000          0.0000          0.0000          0.0000          0.0000          0.0000          0.0000

STAT_1:   580000             467

Steps/sec. : 3882.8738
MOVE_0:   590000          176963           88945         50.2619          0.9648               0               0          0.0000          0.7854               0               0          0.0000          206901          132320         63.9533

ENER_0:   590000     -56791.4413          0.0000          0.0000     -54117.7729      -2673.6684          0.0000          0.0000          0.0000          0.0000          0.0000

STAT_0:   590000             167

MOVE_1:   590000          206136          132485         64.2707

ENER_1:   590000          0.0000          0.0000          0.0000          0.0000          0.0000          0.0000          0.0000          0.0000          0.0000          0.0000

STAT_1:   590000             435

Steps/sec. : 3846.2665
MOVE_0:   600000          179949           90398         50.2353          0.7244               0               0          0.0000          0.7854               0               0          0.0000          210421          134109         63.7337

ENER_0:   600000     -69835.3183          0.0000          0.0000     -66482.9030      -3352.4154          0.0000          0.0000          0.0000          0.0000          0.0000

STAT_0:   600000             187

MOVE_1:   600000          209630          134294         64.0624

ENER_1:   600000          0.0000          0.0000          0.0000          0.0000          0.0000          0.0000          0.0000          0.0000          0.0000          0.0000

STAT_1:   600000             415

Steps/sec. : 3497.0316
MOVE_0:   610000          183003           91958         50.2494          0.8572               0               0          0.0000          0.7854               0               0          0.0000          213898          135709         63.4457

ENER_0:   610000     -48969.5914          0.0000          0.0000     -46576.3374      -2393.2539          0.0000          0.0000          0.0000          0.0000          0.0000

STAT_0:   610000             158

MOVE_1:   610000          213099          135865         63.7568

ENER_1:   610000          0.0000          0.0000          0.0000          0.0000          0.0000          0.0000          0.0000          0.0000          0.0000          0.0000

STAT_1:   610000             444

Steps/sec. : 3705.5373
MOVE_0:   620000          186010           93408         50.2167          0.5820               0               0          0.0000          0.7854               0               0          0.0000          217366          137030         63.0411

ENER_0:   620000    -103129.3096          0.0000          0.0000     -98101.8849      -5027.4247          0.0000          0.0000          0.0000          0.0000          0.0000

STAT_0:   620000             229

MOVE_1:   620000          216624          137257         63.3619

ENER_1:   620000          0.0000          0.0000          0.0000          0.0000          0.0000          0.0000          0.0000          0.0000          0.0000          0.0000

STAT_1:   620000             373

Steps/sec. : 3498.6321
MOVE_0:   630000          188976           94932         50.2350          0.7265               0               0          0.0000          0.7854               0               0          0.0000          220827          138301         62.6287

ENER_0:   630000     -74433.4002          0.0000          0.0000     -70862.4053      -3570.9949          0.0000          0.0000          0.0000          0.0000          0.0000

STAT_0:   630000             193

MOVE_1:   630000          220197          138492         62.8946

ENER_1:   630000          0.0000          0.0000          0.0000          0.0000          0.0000          0.0000          0.0000          0.0000          0.0000          0.0000

STAT_1:   630000             409

Steps/sec. : 3287.4696
MOVE_0:   640000          192035           96465         50.2330          0.7319               0               0          0.0000          0.7854               0               0          0.0000          224276          139619         62.2532

ENER_0:   640000     -86013.3718          0.0000          0.0000     -81785.5838      -4227.7880          0.0000          0.0000          0.0000          0.0000          0.0000

STAT_0:   640000             210

MOVE_1:   640000          223689          139827         62.5096

ENER_1:   640000          0.0000          0.0000          0.0000          0.0000          0.0000          0.0000          0.0000          0.0000          0.0000          0.0000

STAT_1:   640000             392

Steps/sec. : 3488.5141
MOVE_0:   650000          195054           97977         50.2307          0.7206               0               0          0.0000          0.7854               0               0          0.0000          227751          140894         61.8632

ENER_0:   650000     -84227.5172          0.0000          0.0000     -80159.2539      -4068.2633          0.0000          0.0000          0.0000          0.0000          0.0000

STAT_0:   650000             206

MOVE_1:   650000          227195          141098         62.1044

ENER_1:   650000          0.0000          0.0000          0.0000          0.0000          0.0000          0.0000          0.0000          0.0000          0.0000          0.0000

STAT_1:   650000             396

Steps/sec. : 3390.1686
MOVE_0:   660000          198096           99487         50.2216          0.6459               0               0          0.0000          0.7854               0               0          0.0000          231229          142190         61.4932

ENER_0:   660000     -85694.2300          0.0000          0.0000     -81546.5878      -4147.6421          0.0000          0.0000          0.0000          0.0000          0.0000

STAT_0:   660000             208

MOVE_1:   660000          230675          142396         61.7301

ENER_1:   660000          0.0000          0.0000          0.0000          0.0000          0.0000          0.0000          0.0000          0.0000          0.0000          0.0000

STAT_1:   660000             394

Steps/sec. : 3399.9692
MOVE_0:   670000          201083          101011         50.2335          0.7752               0               0          0.0000          0.7854               0               0          0.0000          234761          143608         61.1720

ENER_0:   670000     -65543.1532          0.0000          0.0000     -62573.5396      -2969.6136          0.0000          0.0000          0.0000          0.0000          0.0000

STAT_0:   670000             176

MOVE_1:   670000          234156          143782         61.4044

ENER_1:   670000          0.0000          0.0000          0.0000          0.0000          0.0000          0.0000          0.0000          0.0000          0.0000          0.0000

STAT_1:   670000             426

Steps/sec. : 3508.9825
MOVE_0:   680000          204017          102480         50.2311          0.7522               0               0          0.0000          0.7854               0               0          0.0000          238311          145151         60.9082

ENER_0:   680000     -68995.9983          0.0000          0.0000     -65679.3418      -3316.6565          0.0000          0.0000          0.0000          0.0000          0.0000

STAT_0:   680000             186

MOVE_1:   680000          237672          145335         61.1494

ENER_1:   680000          0.0000          0.0000          0.0000          0.0000          0.0000          0.0000          0.0000          0.0000          0.0000          0.0000

STAT_1:   680000             416

Steps/sec. : 3508.4665
MOVE_0:   690000          207078          104019         50.2318          0.7884               0               0          0.0000          0.7854               0               0          0.0000          241779          146538         60.6082

ENER_0:   690000     -59917.8833          0.0000          0.0000     -57244.2149      -2673.6684          0.0000          0.0000          0.0000          0.0000          0.0000

STAT_0:   690000             167

MOVE_1:   690000          241143          146703         60.8365

ENER_1:   690000          0.0000          0.0000          0.0000          0.0000          0.0000          0.0000          0.0000          0.0000          0.0000          0.0000

STAT_1:   690000             435

Steps/sec. : 3408.9811
MOVE_0:   700000          210130          105540         50.2261          0.7449               0               0          0.0000          0.7854               0               0          0.0000          245232          147910         60.3143

ENER_0:   700000     -60832.5176          0.0000          0.0000     -57896.5537      -2935.9639          0.0000          0.0000          0.0000          0.0000          0.0000

STAT_0:   700000             175

MOVE_1:   700000          244638          148083         60.5315

ENER_1:   700000          0.0000          0.0000          0.0000          0.0000          0.0000          0.0000          0.0000          0.0000          0.0000          0.0000

STAT_1:   700000             427

Steps/sec. : 3436.5158
MOVE_0:   710000          213135          107045         50.2240          0.7292               0               0          0.0000          0.7854               0               0          0.0000          248770          149544         60.1134

ENER_0:   710000     -64289.2582          0.0000          0.0000     -61251.7699      -3037.4883          0.0000          0.0000          0.0000          0.0000          0.0000

STAT_0:   710000             178

MOVE_1:   710000          248095          149720         60.3479

ENER_1:   710000          0.0000          0.0000          0.0000          0.0000          0.0000          0.0000          0.0000          0.0000          0.0000          0.0000

STAT_1:   710000             424

Steps/sec. : 3671.3577
MOVE_0:   720000          216167          108546         50.2140          0.6344               0               0          0.0000          0.7854               0               0          0.0000          252182          150820         59.8060

ENER_0:   720000     -93167.7594          0.0000          0.0000     -88653.4213      -4514.3380          0.0000          0.0000          0.0000          0.0000          0.0000

STAT_0:   720000             217

MOVE_1:   720000          251651          151035         60.0176

ENER_1:   720000          0.0000          0.0000          0.0000          0.0000          0.0000          0.0000          0.0000          0.0000          0.0000          0.0000

STAT_1:   720000             385

Steps/sec. : 3342.0350
MOVE_0:   730000          219202          110059         50.2089          0.5967               0               0          0.0000          0.7854               0               0          0.0000          255682          152160         59.5114

ENER_0:   730000     -88957.6214          0.0000          0.0000     -84689.4729      -4268.1485          0.0000          0.0000          0.0000          0.0000          0.0000

STAT_0:   730000             211

MOVE_1:   730000          255116          152369         59.7254

ENER_1:   730000          0.0000          0.0000          0.0000          0.0000          0.0000          0.0000          0.0000          0.0000          0.0000          0.0000

STAT_1:   730000             391

Steps/sec. : 3380.4935
MOVE_0:   740000          222183          111689         50.2689          1.3921               0               0          0.0000          0.7854               0               0          0.0000          259255          154051         59.4206

ENER_0:   740000     -11967.8345          0.0000          0.0000     -11428.5758       -539.2587          0.0000          0.0000          0.0000          0.0000          0.0000

STAT_0:   740000              75

MOVE_1:   740000          258562          154124         59.6081

ENER_1:   740000          0.0000          0.0000          0.0000          0.0000          0.0000          0.0000          0.0000          0.0000          0.0000          0.0000

STAT_1:   740000             527

Steps/sec. : 3592.7864
MOVE_0:   750000          225153          113259         50.3031          2.3025               0               0          0.0000          0.7854               0               0          0.0000          262751          156840         59.6915

ENER_0:   750000     -12585.8841          0.0000          0.0000     -12032.1494       -553.7348          0.0000          0.0000          0.0000          0.0000          0.0000

STAT_0:   750000              76

MOVE_1:   750000          262096          156914         59.8689

ENER_1:   750000          0.0000          0.0000          0.0000          0.0000          0.0000          0.0000          0.0000          0.0000          0.0000          0.0000

STAT_1:   750000             526

Steps/sec. : 4152.6928
MOVE_0:   760000          228187          114783         50.3022          2.1259               0               0          0.0000          0.7854               0               0          0.0000          266229          159488         59.9063

ENER_0:   760000     -16688.6247          0.0000          0.0000     -15929.2526       -759.3721          0.0000          0.0000          0.0000          0.0000          0.0000

STAT_0:   760000              89

MOVE_1:   760000          265584          159575         60.0846

ENER_1:   760000          0.0000          0.0000          0.0000          0.0000          0.0000          0.0000          0.0000          0.0000          0.0000          0.0000

STAT_1:   760000             513

Steps/sec. : 3883.3638
MOVE_0:   770000          231134          116296         50.3154          2.1381               0               0          0.0000          0.7854               0               0          0.0000          269794          162313         60.1618

ENER_0:   770000      -9878.5174          0.0000          0.0000      -9435.2228       -443.2946          0.0000          0.0000          0.0000          0.0000          0.0000

STAT_0:   770000              68

MOVE_1:   770000          269072          162379         60.3478

ENER_1:   770000          0.0000          0.0000          0.0000          0.0000          0.0000          0.0000          0.0000          0.0000          0.0000          0.0000

STAT_1:   770000             534

Steps/sec. : 2671.8186
MOVE_0:   780000          234124          117845         50.3344          2.6314               0               0          0.0000          0.7854               0               0          0.0000          273379          165156         60.4128

ENER_0:   780000      -6517.6059          0.0000          0.0000      -6227.6045       -290.0013          0.0000          0.0000          0.0000          0.0000          0.0000

STAT_0:   780000              55

MOVE_1:   780000          272497          165209         60.6278

ENER_1:   780000          0.0000          0.0000          0.0000          0.0000          0.0000          0.0000          0.0000          0.0000          0.0000          0.0000

STAT_1:   780000             547

Steps/sec. : 2535.5606
MOVE_0:   790000          237135          119326         50.3199          2.0971               0               0          0.0000          0.7854               0               0          0.0000          276868          167954         60.6621

ENER_0:   790000     -10979.2689          0.0000          0.0000     -10495.9973       -483.2716          0.0000          0.0000          0.0000          0.0000          0.0000

STAT_0:   790000              71

MOVE_1:   790000          275997          168023         60.8786

ENER_1:   790000          0.0000          0.0000          0.0000          0.0000          0.0000          0.0000          0.0000          0.0000          0.0000          0.0000

STAT_1:   790000             531

Steps/sec. : 2791.1746
MOVE_0:   800000          240074          120789         50.3132          1.7926               0               0          0.0000          0.7854               0               0          0.0000          280409          170756         60.8953

ENER_0:   800000     -22266.6874          0.0000          0.0000     -21288.7358       -977.9516          0.0000          0.0000          0.0000          0.0000          0.0000

STAT_0:   800000             101

MOVE_1:   800000          279517          170855         61.1251

ENER_1:   800000          0.0000          0.0000          0.0000          0.0000          0.0000          0.0000          0.0000          0.0000          0.0000          0.0000

STAT_1:   800000             501

Steps/sec. : 2608.0509
MOVE_0:   810000          243035          122285         50.3158          1.7319               0               0          0.0000          0.7854               0               0          0.0000          283950          173526         61.1115

ENER_0:   810000     -10156.3216          0.0000          0.0000      -9738.7197       -417.6019          0.0000          0.0000          0.0000          0.0000          0.0000

STAT_0:   810000              66

MOVE_1:   810000          283015          173590         61.3360

ENER_1:   810000          0.0000          0.0000          0.0000          0.0000          0.0000          0.0000          0.0000          0.0000          0.0000          0.0000

STAT_1:   810000             536

Steps/sec. : 2625.9132
MOVE_0:   820000          246088          123841         50.3239          1.8215               0               0          0.0000          0.7854               0               0          0.0000          287403          176099         61.2725

ENER_0:   820000      -7132.3033          0.0000          0.0000      -6852.7516       -279.5517          0.0000          0.0000          0.0000          0.0000          0.0000

STAT_0:   820000              54

MOVE_1:   820000          286509          176151         61.4818

ENER_1:   820000          0.0000          0.0000          0.0000          0.0000          0.0000          0.0000          0.0000          0.0000          0.0000          0.0000

STAT_1:   820000             548

Steps/sec. : 2672.6719
MOVE_0:   830000          249070          125389         50.3429          2.5103               0               0          0.0000          0.7854               0               0          0.0000          290895          178795         61.4638

ENER_0:   830000     -17623.6715          0.0000          0.0000     -16847.1390       -776.5325          0.0000          0.0000          0.0000          0.0000          0.0000

STAT_0:   830000              90

MOVE_1:   830000          290035          178883         61.6763

ENER_1:   830000          0.0000          0.0000          0.0000          0.0000          0.0000          0.0000          0.0000          0.0000          0.0000          0.0000

STAT_1:   830000             512

Steps/sec. : 2558.2102
MOVE_0:   840000          252032          126745         50.2892          0.8653               0               0          0.0000          0.7854               0               0          0.0000          294399          181248         61.5654

ENER_0:   840000     -54899.4523          0.0000          0.0000     -52383.4870      -2515.9652          0.0000          0.0000          0.0000          0.0000          0.0000

STAT_0:   840000             162

MOVE_1:   840000          293569          181408         61.7940

ENER_1:   840000          0.0000          0.0000          0.0000          0.0000          0.0000          0.0000          0.0000          0.0000          0.0000          0.0000

STAT_1:   840000             440

Steps/sec. : 2552.2086
MOVE_0:   850000          255028          128205         50.2710          0.6531               0               0          0.0000          0.7854               0               0          0.0000          297927          182637         61.3026

ENER_0:   850000     -83518.5531          0.0000          0.0000     -79606.7467      -3911.8063          0.0000          0.0000          0.0000          0.0000          0.0000

STAT_0:   850000             202

MOVE_1:   850000          297045          182837         61.5520

ENER_1:   850000          0.0000          0.0000          0.0000          0.0000          0.0000          0.0000          0.0000          0.0000          0.0000          0.0000

STAT_1:   850000             400

Steps/sec. : 2438.1781
MOVE_0:   860000          258013          129708         50.2719          0.6713               0               0          0.0000          0.7854               0               0          0.0000          301478          184175         61.0907

ENER_0:   860000     -85145.7612          0.0000          0.0000     -80958.1420      -4187.6192          0.0000          0.0000          0.0000          0.0000          0.0000

STAT_0:   860000             209

MOVE_1:   860000          300509          184382         61.3566

ENER_1:   860000          0.0000          0.0000          0.0000          0.0000          0.0000          0.0000          0.0000          0.0000          0.0000          0.0000

STAT_1:   860000             393

Steps/sec. : 2542.1811
MOVE_0:   870000          261007          131226         50.2768          0.7627               0               0          0.0000          0.7854               0               0          0.0000          304953          185735         60.9061

ENER_0:   870000     -54815.7384          0.0000          0.0000     -52205.7264      -2610.0120          0.0000          0.0000          0.0000          0.0000          0.0000

STAT_0:   870000             165

MOVE_1:   870000          304040          185898         61.1426

ENER_1:   870000          0.0000          0.0000          0.0000          0.0000          0.0000          0.0000          0.0000          0.0000          0.0000          0.0000

STAT_1:   870000             437

Steps/sec. : 2520.1105
MOVE_0:   880000          263972          132730         50.2818          0.8537               0               0          0.0000          0.7854               0               0          0.0000          308482          187433         60.7598

ENER_0:   880000     -57948.7108          0.0000          0.0000     -55145.4285      -2803.2823          0.0000          0.0000          0.0000          0.0000          0.0000

STAT_0:   880000             171

MOVE_1:   880000          307546          187602         60.9997

ENER_1:   880000          0.0000          0.0000          0.0000          0.0000          0.0000          0.0000          0.0000          0.0000          0.0000          0.0000

STAT_1:   880000             431

Steps/sec. : 2620.1853
MOVE_0:   890000          267049          134280         50.2829          0.8832               0               0          0.0000          0.7854               0               0          0.0000          311939          188989         60.5852

ENER_0:   890000     -38930.4394          0.0000          0.0000     -37131.0890      -1799.3504          0.0000          0.0000          0.0000          0.0000          0.0000

STAT_0:   890000             137

MOVE_1:   890000          311012          189124         60.8092

ENER_1:   890000          0.0000          0.0000          0.0000          0.0000          0.0000          0.0000          0.0000          0.0000          0.0000          0.0000

STAT_1:   890000             465

Steps/sec. : 2488.3743
MOVE_0:   900000          270051          135821         50.2946          1.0846               0               0          0.0000          0.7854               0               0          0.0000          315435          190808         60.4904

ENER_0:   900000     -39883.8467          0.0000          0.0000     -37923.4377      -1960.4090          0.0000          0.0000          0.0000          0.0000          0.0000

STAT_0:   900000             143

MOVE_1:   900000          314514          190949         60.7124

ENER_1:   900000          0.0000          0.0000          0.0000          0.0000          0.0000          0.0000          0.0000          0.0000          0.0000          0.0000

STAT_1:   900000             459

Steps/sec. : 2584.7809
MOVE_0:   910000          273042          137272         50.2750          0.7811               0               0          0.0000          0.7854               0               0          0.0000          318940          192555         60.3734

ENER_0:   910000     -74939.2914          0.0000          0.0000     -71478.4491      -3460.8423          0.0000          0.0000          0.0000          0.0000          0.0000

STAT_0:   910000             190

MOVE_1:   910000          318018          192743         60.6076

ENER_1:   910000          0.0000          0.0000          0.0000          0.0000          0.0000          0.0000          0.0000          0.0000          0.0000          0.0000

STAT_1:   910000             412

Steps/sec. : 2488.9355
MOVE_0:   920000          276064          138737         50.2554          0.5687               0               0          0.0000          0.7854               0               0          0.0000          322401          193753         60.0969

ENER_0:   920000    -107771.9626          0.0000          0.0000    -102567.3735      -5204.5891          0.0000          0.0000          0.0000          0.0000          0.0000

STAT_0:   920000             233

MOVE_1:   920000          321535          193984         60.3306

ENER_1:   920000          0.0000          0.0000          0.0000          0.0000          0.0000          0.0000          0.0000          0.0000          0.0000          0.0000

STAT_1:   920000             369

Steps/sec. : 2126.4715
MOVE_0:   930000          279048          140259         50.2634          0.6742               0               0          0.0000          0.7854               0               0          0.0000          325907          195086         59.8594

ENER_0:   930000     -75038.0862          0.0000          0.0000     -71467.0914      -3570.9949          0.0000          0.0000          0.0000          0.0000          0.0000

STAT_0:   930000             193

MOVE_1:   930000          325045          195277         60.0769

ENER_1:   930000          0.0000          0.0000          0.0000          0.0000          0.0000          0.0000          0.0000          0.0000          0.0000          0.0000

STAT_1:   930000             409

Steps/sec. : 1949.4344
MOVE_0:   940000          282092          141798         50.2666          0.7352               0               0          0.0000          0.7854               0               0          0.0000          329366          196349         59.6142

ENER_0:   940000     -73655.6188          0.0000          0.0000     -70121.5332      -3534.0856          0.0000          0.0000          0.0000          0.0000          0.0000

STAT_0:   940000             192

MOVE_1:   940000          328542          196539         59.8216

ENER_1:   940000          0.0000          0.0000          0.0000          0.0000          0.0000          0.0000          0.0000          0.0000          0.0000          0.0000

STAT_1:   940000             410

Steps/sec. : 2082.3502
MOVE_0:   950000          285066          143303         50.2701          0.7794               0               0          0.0000          0.7854               0               0          0.0000          332847          197746         59.4105

ENER_0:   950000     -53598.4925          0.0000          0.0000     -51082.5273      -2515.9652          0.0000          0.0000          0.0000          0.0000          0.0000

STAT_0:   950000             162

MOVE_1:   950000          332087          197906         59.5946

ENER_1:   950000          0.0000          0.0000          0.0000          0.0000          0.0000          0.0000          0.0000          0.0000          0.0000          0.0000

STAT_1:   950000             440

Steps/sec. : 2014.8523
MOVE_0:   960000          287991          144762         50.2662          0.7476               0               0          0.0000          0.7854               0               0          0.0000          336359          199398         59.2813

ENER_0:   960000     -69061.1540          0.0000          0.0000     -65744.4975      -3316.6565          0.0000          0.0000          0.0000          0.0000          0.0000

STAT_0:   960000             186

MOVE_1:   960000          335650          199582         59.4613

ENER_1:   960000          0.0000          0.0000          0.0000          0.0000          0.0000          0.0000          0.0000          0.0000          0.0000          0.0000

STAT_1:   960000             416

Steps/sec. : 1946.7024
MOVE_0:   970000          291021          146260         50.2575          0.6511               0               0          0.0000          0.7854               0               0          0.0000          339834          200749         59.0727

ENER_0:   970000     -88811.1347          0.0000          0.0000     -84583.3467      -4227.7880          0.0000          0.0000          0.0000          0.0000          0.0000

STAT_0:   970000             210

MOVE_1:   970000          339145          200957         59.2540

ENER_1:   970000          0.0000          0.0000          0.0000          0.0000          0.0000          0.0000          0.0000          0.0000          0.0000          0.0000

STAT_1:   970000             392

Steps/sec. : 1926.9535
MOVE_0:   980000          294019          147785         50.2638          0.7486               0               0          0.0000          0.7854               0               0          0.0000          343342          202245         58.9048

ENER_0:   980000     -78762.3519          0.0000          0.0000     -74927.6236      -3834.7283          0.0000          0.0000          0.0000          0.0000          0.0000

STAT_0:   980000             200

MOVE_1:   980000          342639          202443         59.0835

ENER_1:   980000          0.0000          0.0000          0.0000          0.0000          0.0000          0.0000          0.0000          0.0000          0.0000          0.0000

STAT_1:   980000             402

Steps/sec. : 1826.1431
MOVE_0:   990000          297047          149259         50.2476          0.5547               0               0          0.0000          0.7854               0               0          0.0000          346808          203264         58.6100

ENER_0:   990000    -103135.9311          0.0000          0.0000     -98195.9382      -4939.9929          0.0000          0.0000          0.0000          0.0000          0.0000

STAT_0:   990000             227

MOVE_1:   990000          346145          203489         58.7872

ENER_1:   990000          0.0000          0.0000          0.0000          0.0000          0.0000          0.0000          0.0000          0.0000          0.0000          0.0000

STAT_1:   990000             375

Steps/sec. : 1879.3092
MOVE_0:  1000000          300036          150816         50.2660          0.8295               0               0          0.0000          0.7854               0               0          0.0000          350394          204699         58.4197

ENER_0:  1000000     -54945.6474          0.0000          0.0000     -52303.9030      -2641.7443          0.0000          0.0000          0.0000          0.0000          0.0000

STAT_0:  1000000             166

MOVE_1:  1000000          349570          204863         58.6043

ENER_1:  1000000          0.0000          0.0000          0.0000          0.0000          0.0000          0.0000          0.0000          0.0000          0.0000          0.0000

STAT_1:  1000000             436

Simulation Time (total): 195.7102sec.
GOMC Serial Version 1.9
Completed at: Sat Apr 22 21:47:42 2017
On hostname: potoff39.eng.wayne.edu
