GOMC Serial Version 1.9
Started at: Fri Dec  9 11:31:09 2016
On hostname: potoff39.eng.wayne.edu

Total number of CPUs: 4
Total number of CPUs available: 4
Model name: Intel(R) Core(TM) i5-2500K CPU @ 3.30GHz

System name: Linux
Release: 2.6.32-642.4.2.el6.x86_64
Version: #1 SMP Tue Aug 23 19:58:13 UTC 2016
Kernel Architecture: x86_64
Total Ram: 7856.3MB
Used Ram: 5542.3MB
Working in the current directory /home3/soroush/Desktop/validation/GOMC_Serial-development_1.90/GOMC_Examples-master/GCMC/argon/run2a_bridge

------------------------------------------------------
This code was compiled to support the grand canonical ensemble.
------------------------------------------------------

REMINDER: EXOTIC force field has been selected!
Temperature of system has been set to 150.0 K 
By default intra box swap frequency has been set to zero
Warning: Electrostatic energy would not be calculated!
Reading from Exotic Parameter File file: ./../../../common/Par_Vrabec01_Noble_Gases_Exotic.inp

Finished reading Exotic Parameter File file: ./../../../common/Par_Vrabec01_Noble_Gases_Exotic.inp

Reading from Box 1 PDB coordinate file file: ./STEP3_START_AR_vap_BOX_0.pdb

Finished reading Box 1 PDB coordinate file file: ./STEP3_START_AR_vap_BOX_0.pdb

Reading from Box 2 PDB coordinate file file: ./STEP3_START_AR_reservoir_BOX_1.pdb

Finished reading Box 2 PDB coordinate file file: ./STEP3_START_AR_reservoir_BOX_1.pdb

Random number seed: 322115275

Molecules in PSF:

Molecule Kind: AR
Idx	name	type	charge	mass
0	AR	AR	0.0	39.9

Bonds:

Angles:

Dihedrals:

REMINDER! 1-3 and 1-4 Interaction is OFF


########################## INITIAL SIMULATION ENERGY ##########################
ETITLE_BOX_0    TOTAL           INTRA(B)        INTRA(N)        INTER(LJ)       LRC             TOTAL_ELECT     REAL            RECIP           SELF            CORR            

ENERGY_BOX_0    -35.6932        0.0000          0.0000          -35.3097        -0.3835         0.0000          0.0000          0.0000          0.0000          -0.0000         

ETITLE_BOX_1    TOTAL           INTRA(B)        INTRA(N)        INTER(LJ)       LRC             TOTAL_ELECT     REAL            RECIP           SELF            CORR            

ENERGY_BOX_1    0.0000          0.0000          0.0000          0.0000          0.0000          0.0000          0.0000          0.0000          0.0000          -0.0000         

###############################################################################

############################# STARTING SIMULATION #############################
MTITLE_BOX_0    DISTRY          DISACCEPT       DISACCEPT%      DISMAX          ROTATE          ROTACCEPT       ROTACCEPT%      ROTMAX          INTRASWAP       INTACCEPT       INTACCEPT%      TRANSFER        TRANACCEPT      TRANACCEPT%     STEP            

ETITLE_BOX_0    TOTAL           INTRA(B)        INTRA(N)        INTER(LJ)       LRC             TOTAL_ELECT     REAL            RECIP           SELF            CORR            
STITLE_BOX_0    TOTALMOL        

MTITLE_BOX_1    TRANSFER        TRANACCEPT      TRANACCEPT%     STEP            

ETITLE_BOX_1    TOTAL           INTRA(B)        INTRA(N)        INTER(LJ)       LRC             TOTAL_ELECT     REAL            RECIP           SELF            CORR            
STITLE_BOX_1    TOTALMOL        

Printed combined psf to file AR_150_00_K_u_968_r2a.psf
MOVE_BOX_0      2990            1409            47.1237         3.0600          0               0               0.0000          0.7854          0               0               0.0000          3577            2832            79.1725         10000           

ENERGY_BOX_0    -14535.9181     0.0000          0.0000          -13922.3616     -613.5565       0.0000          0.0000          0.0000          0.0000          0.0000          

STAT_BOX_0      80              

MOVE_BOX_1      3433            2910            84.7655         10000           

ENERGY_BOX_1    0.0000          0.0000          0.0000          0.0000          0.0000          0.0000          0.0000          0.0000          0.0000          0.0000          

STAT_BOX_1      522             

Steps/sec. : 47625.6356
MOVE_BOX_0      5955            2893            48.5810         2.2951          0               0               0.0000          0.7854          0               0               0.0000          7114            5637            79.2381         20000           

ENERGY_BOX_0    -13079.0894     0.0000          0.0000          -12510.6868     -568.4026       0.0000          0.0000          0.0000          0.0000          0.0000          

STAT_BOX_0      77              

MOVE_BOX_1      6931            5712            82.4124         20000           

ENERGY_BOX_1    0.0000          0.0000          0.0000          0.0000          0.0000          0.0000          0.0000          0.0000          0.0000          0.0000          

STAT_BOX_1      525             

Steps/sec. : 53808.8628
MOVE_BOX_0      8947            4350            48.6196         1.6326          0               0               0.0000          0.7854          0               0               0.0000          10616           8313            78.3063         30000           

ENERGY_BOX_0    -10905.8454     0.0000          0.0000          -10436.0912     -469.7542       0.0000          0.0000          0.0000          0.0000          0.0000          

STAT_BOX_0      70              

MOVE_BOX_1      10437           8381            80.3009         30000           

ENERGY_BOX_1    0.0000          0.0000          0.0000          0.0000          0.0000          0.0000          0.0000          0.0000          0.0000          0.0000          

STAT_BOX_1      532             

Steps/sec. : 47246.9335
MOVE_BOX_0      11934           5926            49.6564         2.4649          0               0               0.0000          0.7854          0               0               0.0000          14124           11107           78.6392         40000           

ENERGY_BOX_0    -8183.5341      0.0000          0.0000          -7803.0331      -380.5009       0.0000          0.0000          0.0000          0.0000          0.0000          

STAT_BOX_0      63              

MOVE_BOX_1      13942           11168           80.1033         40000           

ENERGY_BOX_1    0.0000          0.0000          0.0000          0.0000          0.0000          0.0000          0.0000          0.0000          0.0000          0.0000          

STAT_BOX_1      539             

Steps/sec. : 55717.7491
MOVE_BOX_0      14948           7360            49.2374         1.2260          0               0               0.0000          0.7854          0               0               0.0000          17615           13799           78.3366         50000           

ENERGY_BOX_0    -20874.2317     0.0000          0.0000          -20009.0211     -865.2106       0.0000          0.0000          0.0000          0.0000          0.0000          

STAT_BOX_0      95              

MOVE_BOX_1      17437           13892           79.6697         50000           

ENERGY_BOX_1    0.0000          0.0000          0.0000          0.0000          0.0000          0.0000          0.0000          0.0000          0.0000          0.0000          

STAT_BOX_1      507             

Steps/sec. : 50392.5625
MOVE_BOX_0      17831           8849            49.6271         1.4520          0               0               0.0000          0.7854          0               0               0.0000          21151           16537           78.1854         60000           

ENERGY_BOX_0    -16056.5977     0.0000          0.0000          -15363.9499     -692.6478       0.0000          0.0000          0.0000          0.0000          0.0000          

STAT_BOX_0      85              

MOVE_BOX_1      21018           16620           79.0751         60000           

ENERGY_BOX_1    0.0000          0.0000          0.0000          0.0000          0.0000          0.0000          0.0000          0.0000          0.0000          0.0000          

STAT_BOX_1      517             

Steps/sec. : 46930.0632
MOVE_BOX_0      20834           10262           49.2560         0.7580          0               0               0.0000          0.7854          0               0               0.0000          24586           18483           75.1769         70000           

ENERGY_BOX_0    -70652.6720     0.0000          0.0000          -67300.2566     -3352.4154      0.0000          0.0000          0.0000          0.0000          0.0000          

STAT_BOX_0      187             

MOVE_BOX_1      24580           18668           75.9479         70000           

ENERGY_BOX_1    0.0000          0.0000          0.0000          0.0000          0.0000          0.0000          0.0000          0.0000          0.0000          0.0000          

STAT_BOX_1      415             

Steps/sec. : 27535.2306
MOVE_BOX_0      23841           11738           49.2345         0.6146          0               0               0.0000          0.7854          0               0               0.0000          28070           19887           70.8479         80000           

ENERGY_BOX_0    -93589.4591     0.0000          0.0000          -89157.9512     -4431.5079      0.0000          0.0000          0.0000          0.0000          0.0000          

STAT_BOX_0      215             

MOVE_BOX_1      28089           20100           71.5583         80000           

ENERGY_BOX_1    0.0000          0.0000          0.0000          0.0000          0.0000          0.0000          0.0000          0.0000          0.0000          0.0000          

STAT_BOX_1      387             

Steps/sec. : 21523.9428
MOVE_BOX_0      26894           13293           49.4274         0.7241          0               0               0.0000          0.7854          0               0               0.0000          31578           21302           67.4584         90000           

ENERGY_BOX_0    -65834.9172     0.0000          0.0000          -62694.1788     -3140.7384      0.0000          0.0000          0.0000          0.0000          0.0000          

STAT_BOX_0      181             

MOVE_BOX_1      31528           21481           68.1331         90000           

ENERGY_BOX_1    0.0000          0.0000          0.0000          0.0000          0.0000          0.0000          0.0000          0.0000          0.0000          0.0000          

STAT_BOX_1      421             

Steps/sec. : 21782.3121
MOVE_BOX_0      29963           14842           49.5344         0.7403          0               0               0.0000          0.7854          0               0               0.0000          35010           23014           65.7355         100000          

ENERGY_BOX_0    -77119.1133     0.0000          0.0000          -73284.3850     -3834.7283      0.0000          0.0000          0.0000          0.0000          0.0000          

STAT_BOX_0      200             

MOVE_BOX_1      35027           23212           66.2689         100000          

ENERGY_BOX_1    0.0000          0.0000          0.0000          0.0000          0.0000          0.0000          0.0000          0.0000          0.0000          0.0000          

STAT_BOX_1      402             

Steps/sec. : 23121.8140
MOVE_BOX_0      32935           16338           49.6068         0.7820          0               0               0.0000          0.7854          0               0               0.0000          38514           24415           63.3925         110000          

ENERGY_BOX_0    -53518.0533     0.0000          0.0000          -51033.0535     -2484.9998      0.0000          0.0000          0.0000          0.0000          0.0000          

STAT_BOX_0      161             

MOVE_BOX_1      38551           24574           63.7441         110000          

ENERGY_BOX_1    0.0000          0.0000          0.0000          0.0000          0.0000          0.0000          0.0000          0.0000          0.0000          0.0000          

STAT_BOX_1      441             

Steps/sec. : 21311.6973
MOVE_BOX_0      35881           17932           49.9763         1.6117          0               0               0.0000          0.7854          0               0               0.0000          42088           26965           64.0681         120000          

ENERGY_BOX_0    -7895.6184      0.0000          0.0000          -7527.1010      -368.5174       0.0000          0.0000          0.0000          0.0000          0.0000          

STAT_BOX_0      62              

MOVE_BOX_1      42031           27025           64.2978         120000          

ENERGY_BOX_1    0.0000          0.0000          0.0000          0.0000          0.0000          0.0000          0.0000          0.0000          0.0000          0.0000          

STAT_BOX_1      540             

Steps/sec. : 40084.9809
MOVE_BOX_0      38999           19532           50.0833         1.8196          0               0               0.0000          0.7854          0               0               0.0000          45527           29728           65.2975         130000          

ENERGY_BOX_0    -11560.2608     0.0000          0.0000          -11063.2800     -496.9808       0.0000          0.0000          0.0000          0.0000          0.0000          

STAT_BOX_0      72              

MOVE_BOX_1      45474           29798           65.5276         130000          

ENERGY_BOX_1    0.0000          0.0000          0.0000          0.0000          0.0000          0.0000          0.0000          0.0000          0.0000          0.0000          

STAT_BOX_1      530             

Steps/sec. : 55713.0864
MOVE_BOX_0      41997           20974           49.9417         1.0514          0               0               0.0000          0.7854          0               0               0.0000          48971           32311           65.9799         140000          

ENERGY_BOX_0    -38045.3950     0.0000          0.0000          -36349.5823     -1695.8127      0.0000          0.0000          0.0000          0.0000          0.0000          

STAT_BOX_0      133             

MOVE_BOX_1      49032           32442           66.1650         140000          

ENERGY_BOX_1    0.0000          0.0000          0.0000          0.0000          0.0000          0.0000          0.0000          0.0000          0.0000          0.0000          

STAT_BOX_1      469             

Steps/sec. : 42408.8160
MOVE_BOX_0      45000           22419           49.8200         0.6726          0               0               0.0000          0.7854          0               0               0.0000          52449           33916           64.6647         150000          

ENERGY_BOX_0    -80880.1616     0.0000          0.0000          -76851.3002     -4028.8614      0.0000          0.0000          0.0000          0.0000          0.0000          

STAT_BOX_0      205             

MOVE_BOX_1      52551           34119           64.9255         150000          

ENERGY_BOX_1    0.0000          0.0000          0.0000          0.0000          0.0000          0.0000          0.0000          0.0000          0.0000          0.0000          

STAT_BOX_1      397             

Steps/sec. : 22839.0833
MOVE_BOX_0      48016           24101           50.1937         1.9973          0               0               0.0000          0.7854          0               0               0.0000          56002           36447           65.0816         160000          

ENERGY_BOX_0    -5357.5657      0.0000          0.0000          -5127.3861      -230.1796       0.0000          0.0000          0.0000          0.0000          0.0000          

STAT_BOX_0      49              

MOVE_BOX_1      55982           36494           65.1888         160000          

ENERGY_BOX_1    0.0000          0.0000          0.0000          0.0000          0.0000          0.0000          0.0000          0.0000          0.0000          0.0000          

STAT_BOX_1      553             

Steps/sec. : 37533.7278
MOVE_BOX_0      51007           25602           50.1931         1.9012          0               0               0.0000          0.7854          0               0               0.0000          59500           39149           65.7966         170000          

ENERGY_BOX_0    -5692.6622      0.0000          0.0000          -5462.4826      -230.1796       0.0000          0.0000          0.0000          0.0000          0.0000          

STAT_BOX_0      49              

MOVE_BOX_1      59493           39196           65.8834         170000          

ENERGY_BOX_1    0.0000          0.0000          0.0000          0.0000          0.0000          0.0000          0.0000          0.0000          0.0000          0.0000          

STAT_BOX_1      553             

Steps/sec. : 49335.6984
MOVE_BOX_0      54024           27150           50.2554         2.4123          0               0               0.0000          0.7854          0               0               0.0000          63019           41947           66.5625         180000          

ENERGY_BOX_0    -6840.6541      0.0000          0.0000          -6610.4745      -230.1796       0.0000          0.0000          0.0000          0.0000          0.0000          

STAT_BOX_0      49              

MOVE_BOX_1      62957           41994           66.7027         180000          

ENERGY_BOX_1    0.0000          0.0000          0.0000          0.0000          0.0000          0.0000          0.0000          0.0000          0.0000          0.0000          

STAT_BOX_1      553             

Steps/sec. : 57093.2469
MOVE_BOX_0      57092           28569           50.0403         1.0332          0               0               0.0000          0.7854          0               0               0.0000          66348           44350           66.8445         190000          

ENERGY_BOX_0    -52471.0732     0.0000          0.0000          -49955.1079     -2515.9652      0.0000          0.0000          0.0000          0.0000          0.0000          

STAT_BOX_0      162             

MOVE_BOX_1      66560           44510           66.8720         190000          

ENERGY_BOX_1    0.0000          0.0000          0.0000          0.0000          0.0000          0.0000          0.0000          0.0000          0.0000          0.0000          

STAT_BOX_1      440             

Steps/sec. : 38246.3400
MOVE_BOX_0      60096           29990           49.9035         0.5348          0               0               0.0000          0.7854          0               0               0.0000          69796           46051           65.9794         200000          

ENERGY_BOX_0    -91714.2708     0.0000          0.0000          -87282.7629     -4431.5079      0.0000          0.0000          0.0000          0.0000          0.0000          

STAT_BOX_0      215             

MOVE_BOX_1      70108           46264           65.9896         200000          

ENERGY_BOX_1    0.0000          0.0000          0.0000          0.0000          0.0000          0.0000          0.0000          0.0000          0.0000          0.0000          

STAT_BOX_1      387             

Steps/sec. : 23410.9791
MOVE_BOX_0      63077           31502           49.9421         0.6035          0               0               0.0000          0.7854          0               0               0.0000          73270           47270           64.5148         210000          

ENERGY_BOX_0    -107631.5771    0.0000          0.0000          -102560.1489    -5071.4282      0.0000          0.0000          0.0000          0.0000          0.0000          

STAT_BOX_0      230             

MOVE_BOX_1      73653           47498           64.4889         210000          

ENERGY_BOX_1    0.0000          0.0000          0.0000          0.0000          0.0000          0.0000          0.0000          0.0000          0.0000          0.0000          

STAT_BOX_1      372             

Steps/sec. : 20284.7200
MOVE_BOX_0      66074           33034           49.9955         0.7337          0               0               0.0000          0.7854          0               0               0.0000          76785           48589           63.2793         220000          

ENERGY_BOX_0    -76235.0132     0.0000          0.0000          -72552.1402     -3682.8731      0.0000          0.0000          0.0000          0.0000          0.0000          

STAT_BOX_0      196             

MOVE_BOX_1      77141           48783           63.2387         220000          

ENERGY_BOX_1    0.0000          0.0000          0.0000          0.0000          0.0000          0.0000          0.0000          0.0000          0.0000          0.0000          

STAT_BOX_1      406             

Steps/sec. : 20774.2992
MOVE_BOX_0      69074           34563           50.0376         0.8470          0               0               0.0000          0.7854          0               0               0.0000          80263           50154           62.4871         230000          

ENERGY_BOX_0    -80527.5821     0.0000          0.0000          -76576.9492     -3950.6330      0.0000          0.0000          0.0000          0.0000          0.0000          

STAT_BOX_0      203             

MOVE_BOX_1      80663           50355           62.4264         230000          

ENERGY_BOX_1    0.0000          0.0000          0.0000          0.0000          0.0000          0.0000          0.0000          0.0000          0.0000          0.0000          

STAT_BOX_1      399             

Steps/sec. : 22331.0452
MOVE_BOX_0      72064           36036           50.0056         0.6864          0               0               0.0000          0.7854          0               0               0.0000          83837           52020           62.0490         240000          

ENERGY_BOX_0    -62575.9449     0.0000          0.0000          -59572.4898     -3003.4551      0.0000          0.0000          0.0000          0.0000          0.0000          

STAT_BOX_0      177             

MOVE_BOX_1      84099           52195           62.0638         240000          

ENERGY_BOX_1    0.0000          0.0000          0.0000          0.0000          0.0000          0.0000          0.0000          0.0000          0.0000          0.0000          

STAT_BOX_1      425             

Steps/sec. : 24936.2311
MOVE_BOX_0      75024           37506           49.9920         0.6352          0               0               0.0000          0.7854          0               0               0.0000          87323           53328           61.0698         250000          

ENERGY_BOX_0    -92311.2421     0.0000          0.0000          -87920.8616     -4390.3804      0.0000          0.0000          0.0000          0.0000          0.0000          

STAT_BOX_0      214             

MOVE_BOX_1      87653           53540           61.0818         250000          

ENERGY_BOX_1    0.0000          0.0000          0.0000          0.0000          0.0000          0.0000          0.0000          0.0000          0.0000          0.0000          

STAT_BOX_1      388             

Steps/sec. : 20815.1565
MOVE_BOX_0      78006           39133           50.1667         1.4390          0               0               0.0000          0.7854          0               0               0.0000          90900           55233           60.7624         260000          

ENERGY_BOX_0    -7276.2758      0.0000          0.0000          -6942.5586      -333.7172       0.0000          0.0000          0.0000          0.0000          0.0000          

STAT_BOX_0      59              

MOVE_BOX_1      91094           55290           60.6955         260000          

ENERGY_BOX_1    0.0000          0.0000          0.0000          0.0000          0.0000          0.0000          0.0000          0.0000          0.0000          0.0000          

STAT_BOX_1      543             

Steps/sec. : 25160.0825
MOVE_BOX_0      81072           40774           50.2936         2.4638          0               0               0.0000          0.7854          0               0               0.0000          94480           58036           61.4268         270000          

ENERGY_BOX_0    -7093.1982      0.0000          0.0000          -6736.4726      -356.7256       0.0000          0.0000          0.0000          0.0000          0.0000          

STAT_BOX_0      61              

MOVE_BOX_1      94448           58095           61.5100         270000          

ENERGY_BOX_1    0.0000          0.0000          0.0000          0.0000          0.0000          0.0000          0.0000          0.0000          0.0000          0.0000          

STAT_BOX_1      541             

Steps/sec. : 60900.6074
MOVE_BOX_0      84037           42274           50.3040         2.2592          0               0               0.0000          0.7854          0               0               0.0000          98030           60837           62.0596         280000          

ENERGY_BOX_0    -6818.0049      0.0000          0.0000          -6528.0036      -290.0013       0.0000          0.0000          0.0000          0.0000          0.0000          

STAT_BOX_0      55              

MOVE_BOX_1      97933           60890           62.1752         280000          

ENERGY_BOX_1    0.0000          0.0000          0.0000          0.0000          0.0000          0.0000          0.0000          0.0000          0.0000          0.0000          

STAT_BOX_1      547             

Steps/sec. : 56270.5297
MOVE_BOX_0      86945           43699           50.2605         1.6581          0               0               0.0000          0.7854          0               0               0.0000          101585          63597           62.6047         290000          

ENERGY_BOX_0    -18822.7190     0.0000          0.0000          -17993.5549     -829.1641       0.0000          0.0000          0.0000          0.0000          0.0000          

STAT_BOX_0      93              

MOVE_BOX_1      101470          63688           62.7653         290000          

ENERGY_BOX_1    0.0000          0.0000          0.0000          0.0000          0.0000          0.0000          0.0000          0.0000          0.0000          0.0000          

STAT_BOX_1      509             

Steps/sec. : 51498.8593
MOVE_BOX_0      89892           45075           50.1435         0.7720          0               0               0.0000          0.7854          0               0               0.0000          105025          65542           62.4061         300000          

ENERGY_BOX_0    -68023.7244     0.0000          0.0000          -64882.9860     -3140.7384      0.0000          0.0000          0.0000          0.0000          0.0000          

STAT_BOX_0      181             

MOVE_BOX_1      105083          65721           62.5420         300000          

ENERGY_BOX_1    0.0000          0.0000          0.0000          0.0000          0.0000          0.0000          0.0000          0.0000          0.0000          0.0000          

STAT_BOX_1      421             

Steps/sec. : 25973.0776
MOVE_BOX_0      92884           46587           50.1561         0.8280          0               0               0.0000          0.7854          0               0               0.0000          108547          67277           61.9796         310000          

ENERGY_BOX_0    -45636.7668     0.0000          0.0000          -43536.8696     -2099.8972      0.0000          0.0000          0.0000          0.0000          0.0000          

STAT_BOX_0      148             

MOVE_BOX_1      108569          67423           62.1015         310000          

ENERGY_BOX_1    0.0000          0.0000          0.0000          0.0000          0.0000          0.0000          0.0000          0.0000          0.0000          0.0000          

STAT_BOX_1      454             

Steps/sec. : 23598.0410
MOVE_BOX_0      95917           48084           50.1308         0.6832          0               0               0.0000          0.7854          0               0               0.0000          112011          68754           61.3815         320000          

ENERGY_BOX_0    -76910.3113     0.0000          0.0000          -73264.9227     -3645.3886      0.0000          0.0000          0.0000          0.0000          0.0000          

STAT_BOX_0      195             

MOVE_BOX_1      112072          68947           61.5203         320000          

ENERGY_BOX_1    0.0000          0.0000          0.0000          0.0000          0.0000          0.0000          0.0000          0.0000          0.0000          0.0000          

STAT_BOX_1      407             

Steps/sec. : 22731.4576
MOVE_BOX_0      98889           49564           50.1208         0.6537          0               0               0.0000          0.7854          0               0               0.0000          115442          69805           60.4676         330000          

ENERGY_BOX_0    -69392.8043     0.0000          0.0000          -66217.2658     -3175.5385      0.0000          0.0000          0.0000          0.0000          0.0000          

STAT_BOX_0      182             

MOVE_BOX_1      115669          69985           60.5045         330000          

ENERGY_BOX_1    0.0000          0.0000          0.0000          0.0000          0.0000          0.0000          0.0000          0.0000          0.0000          0.0000          

STAT_BOX_1      420             

Steps/sec. : 19832.2561
MOVE_BOX_0      101886          51060           50.1148         0.6390          0               0               0.0000          0.7854          0               0               0.0000          118903          71334           59.9934         340000          

ENERGY_BOX_0    -94035.3370     0.0000          0.0000          -89520.9989     -4514.3380      0.0000          0.0000          0.0000          0.0000          0.0000          

STAT_BOX_0      217             

MOVE_BOX_1      119211          71549           60.0188         340000          

ENERGY_BOX_1    0.0000          0.0000          0.0000          0.0000          0.0000          0.0000          0.0000          0.0000          0.0000          0.0000          

STAT_BOX_1      385             

Steps/sec. : 22600.7639
MOVE_BOX_0      104945          52642           50.1615         0.8736          0               0               0.0000          0.7854          0               0               0.0000          122376          72858           59.5362         350000          

ENERGY_BOX_0    -64123.0514     0.0000          0.0000          -61085.5631     -3037.4883      0.0000          0.0000          0.0000          0.0000          0.0000          

STAT_BOX_0      178             

MOVE_BOX_1      122679          73034           59.5326         350000          

ENERGY_BOX_1    0.0000          0.0000          0.0000          0.0000          0.0000          0.0000          0.0000          0.0000          0.0000          0.0000          

STAT_BOX_1      424             

Steps/sec. : 22468.0734
MOVE_BOX_0      107937          54107           50.1283         0.6744          0               0               0.0000          0.7854          0               0               0.0000          125842          74126           58.9040         360000          

ENERGY_BOX_0    -85194.0910     0.0000          0.0000          -81243.4580     -3950.6330      0.0000          0.0000          0.0000          0.0000          0.0000          

STAT_BOX_0      203             

MOVE_BOX_1      126221          74327           58.8864         360000          

ENERGY_BOX_1    0.0000          0.0000          0.0000          0.0000          0.0000          0.0000          0.0000          0.0000          0.0000          0.0000          

STAT_BOX_1      399             

Steps/sec. : 20768.0039
MOVE_BOX_0      110879          55584           50.1303         0.6899          0               0               0.0000          0.7854          0               0               0.0000          129415          75509           58.3464         370000          

ENERGY_BOX_0    -78579.2908     0.0000          0.0000          -74744.5625     -3834.7283      0.0000          0.0000          0.0000          0.0000          0.0000          

STAT_BOX_0      200             

MOVE_BOX_1      129706          75707           58.3682         370000          

ENERGY_BOX_1    0.0000          0.0000          0.0000          0.0000          0.0000          0.0000          0.0000          0.0000          0.0000          0.0000          

STAT_BOX_1      402             

Steps/sec. : 21198.2887
MOVE_BOX_0      113851          57062           50.1199         0.6071          0               0               0.0000          0.7854          0               0               0.0000          132932          76914           57.8597         380000          

ENERGY_BOX_0    -96525.8536     0.0000          0.0000          -92011.5156     -4514.3380      0.0000          0.0000          0.0000          0.0000          0.0000          

STAT_BOX_0      217             

MOVE_BOX_1      133217          77129           57.8973         380000          

ENERGY_BOX_1    0.0000          0.0000          0.0000          0.0000          0.0000          0.0000          0.0000          0.0000          0.0000          0.0000          

STAT_BOX_1      385             

Steps/sec. : 21673.9735
MOVE_BOX_0      116813          58575           50.1442         0.7382          0               0               0.0000          0.7854          0               0               0.0000          136377          77930           57.1431         390000          

ENERGY_BOX_0    -75969.8967     0.0000          0.0000          -72398.9018     -3570.9949      0.0000          0.0000          0.0000          0.0000          0.0000          

STAT_BOX_0      193             

MOVE_BOX_1      136810          78121           57.1018         390000          

ENERGY_BOX_1    0.0000          0.0000          0.0000          0.0000          0.0000          0.0000          0.0000          0.0000          0.0000          0.0000          

STAT_BOX_1      409             

Steps/sec. : 19316.3147
MOVE_BOX_0      119825          60053           50.1173         0.6046          0               0               0.0000          0.7854          0               0               0.0000          139840          79183           56.6240         400000          

ENERGY_BOX_0    -93801.1005     0.0000          0.0000          -89161.0792     -4640.0213      0.0000          0.0000          0.0000          0.0000          0.0000          

STAT_BOX_0      220             

MOVE_BOX_1      140335          79401           56.5796         400000          

ENERGY_BOX_1    0.0000          0.0000          0.0000          0.0000          0.0000          0.0000          0.0000          0.0000          0.0000          0.0000          

STAT_BOX_1      382             

Steps/sec. : 20812.9978
MOVE_BOX_0      122946          61640           50.1358         0.6623          0               0               0.0000          0.7854          0               0               0.0000          143260          80526           56.2097         410000          

ENERGY_BOX_0    -69532.7666     0.0000          0.0000          -66144.4006     -3388.3659      0.0000          0.0000          0.0000          0.0000          0.0000          

STAT_BOX_0      188             

MOVE_BOX_1      143794          80712           56.1303         410000          

ENERGY_BOX_1    0.0000          0.0000          0.0000          0.0000          0.0000          0.0000          0.0000          0.0000          0.0000          0.0000          

STAT_BOX_1      414             

Steps/sec. : 21633.8846
MOVE_BOX_0      125885          63125           50.1450         0.7248          0               0               0.0000          0.7854          0               0               0.0000          146755          81888           55.7991         420000          

ENERGY_BOX_0    -81894.4161     0.0000          0.0000          -77746.7740     -4147.6421      0.0000          0.0000          0.0000          0.0000          0.0000          

STAT_BOX_0      208             

MOVE_BOX_1      147360          82094           55.7098         420000          

ENERGY_BOX_1    0.0000          0.0000          0.0000          0.0000          0.0000          0.0000          0.0000          0.0000          0.0000          0.0000          

STAT_BOX_1      394             

Steps/sec. : 21300.7876
MOVE_BOX_0      128879          64639           50.1548         0.7642          0               0               0.0000          0.7854          0               0               0.0000          150293          83666           55.6686         430000          

ENERGY_BOX_0    -56785.4468     0.0000          0.0000          -54143.7025     -2641.7443      0.0000          0.0000          0.0000          0.0000          0.0000          

STAT_BOX_0      166             

MOVE_BOX_1      150828          83830           55.5799         430000          

ENERGY_BOX_1    0.0000          0.0000          0.0000          0.0000          0.0000          0.0000          0.0000          0.0000          0.0000          0.0000          

STAT_BOX_1      436             

Steps/sec. : 24326.1721
MOVE_BOX_0      131865          66087           50.1172         0.5569          0               0               0.0000          0.7854          0               0               0.0000          153735          85004           55.2925         440000          

ENERGY_BOX_0    -97853.9375     0.0000          0.0000          -92957.3729     -4896.5646      0.0000          0.0000          0.0000          0.0000          0.0000          

STAT_BOX_0      226             

MOVE_BOX_1      154400          85228           55.1995         440000          

ENERGY_BOX_1    0.0000          0.0000          0.0000          0.0000          0.0000          0.0000          0.0000          0.0000          0.0000          0.0000          

STAT_BOX_1      376             

Steps/sec. : 21465.2201
MOVE_BOX_0      134856          67625           50.1461         0.6817          0               0               0.0000          0.7854          0               0               0.0000          157220          86465           54.9962         450000          

ENERGY_BOX_0    -89084.7005     0.0000          0.0000          -84735.2558     -4349.4447      0.0000          0.0000          0.0000          0.0000          0.0000          

STAT_BOX_0      213             

MOVE_BOX_1      157924          86676           54.8846         450000          

ENERGY_BOX_1    0.0000          0.0000          0.0000          0.0000          0.0000          0.0000          0.0000          0.0000          0.0000          0.0000          

STAT_BOX_1      389             

Steps/sec. : 21781.3619
MOVE_BOX_0      137924          69134           50.1247         0.5363          0               0               0.0000          0.7854          0               0               0.0000          160647          87691           54.5861         460000          

ENERGY_BOX_0    -89562.1372     0.0000          0.0000          -85212.6924     -4349.4447      0.0000          0.0000          0.0000          0.0000          0.0000          

STAT_BOX_0      213             

MOVE_BOX_1      161429          87902           54.4524         460000          

ENERGY_BOX_1    0.0000          0.0000          0.0000          0.0000          0.0000          0.0000          0.0000          0.0000          0.0000          0.0000          

STAT_BOX_1      389             

Steps/sec. : 20776.8925
MOVE_BOX_0      140914          70684           50.1611         0.7539          0               0               0.0000          0.7854          0               0               0.0000          164103          89124           54.3098         470000          

ENERGY_BOX_0    -70447.3501     0.0000          0.0000          -67022.8418     -3424.5082      0.0000          0.0000          0.0000          0.0000          0.0000          

STAT_BOX_0      189             

MOVE_BOX_1      164983          89311           54.1335         470000          

ENERGY_BOX_1    0.0000          0.0000          0.0000          0.0000          0.0000          0.0000          0.0000          0.0000          0.0000          0.0000          

STAT_BOX_1      413             

Steps/sec. : 21390.8775
MOVE_BOX_0      143946          72183           50.1459         0.6319          0               0               0.0000          0.7854          0               0               0.0000          167630          90764           54.1454         480000          

ENERGY_BOX_0    -74936.5458     0.0000          0.0000          -71402.4602     -3534.0856      0.0000          0.0000          0.0000          0.0000          0.0000          

STAT_BOX_0      192             

MOVE_BOX_1      168424          90954           54.0030         480000          

ENERGY_BOX_1    0.0000          0.0000          0.0000          0.0000          0.0000          0.0000          0.0000          0.0000          0.0000          0.0000          

STAT_BOX_1      410             

Steps/sec. : 23375.7380
MOVE_BOX_0      146933          73723           50.1746         0.8222          0               0               0.0000          0.7854          0               0               0.0000          171206          92467           54.0092         490000          

ENERGY_BOX_0    -51846.0623     0.0000          0.0000          -49483.0069     -2363.0555      0.0000          0.0000          0.0000          0.0000          0.0000          

STAT_BOX_0      157             

MOVE_BOX_1      171861          92622           53.8936         490000          

ENERGY_BOX_1    0.0000          0.0000          0.0000          0.0000          0.0000          0.0000          0.0000          0.0000          0.0000          0.0000          

STAT_BOX_1      445             

Steps/sec. : 23621.2184
MOVE_BOX_0      149943          75198           50.1511         0.6319          0               0               0.0000          0.7854          0               0               0.0000          174684          94110           53.8744         500000          

ENERGY_BOX_0    -66385.9732     0.0000          0.0000          -63175.4428     -3210.5304      0.0000          0.0000          0.0000          0.0000          0.0000          

STAT_BOX_0      183             

MOVE_BOX_1      175373          94291           53.7660         500000          

ENERGY_BOX_1    0.0000          0.0000          0.0000          0.0000          0.0000          0.0000          0.0000          0.0000          0.0000          0.0000          

STAT_BOX_1      419             

Steps/sec. : 20179.6018
MOVE_BOX_0      152937          76871           50.2632         1.8331          0               0               0.0000          0.7854          0               0               0.0000          178191          96223           53.9999         510000          

ENERGY_BOX_0    -9019.0578      0.0000          0.0000          -8638.5569      -380.5009       0.0000          0.0000          0.0000          0.0000          0.0000          

STAT_BOX_0      63              

MOVE_BOX_1      178872          96284           53.8284         510000          

ENERGY_BOX_1    0.0000          0.0000          0.0000          0.0000          0.0000          0.0000          0.0000          0.0000          0.0000          0.0000          

STAT_BOX_1      539             

Steps/sec. : 3681.4258
MOVE_BOX_0      155965          78307           50.2081         0.9557          0               0               0.0000          0.7854          0               0               0.0000          181586          98633           54.3175         520000          

ENERGY_BOX_0    -42822.2252     0.0000          0.0000          -40916.2694     -1905.9558      0.0000          0.0000          0.0000          0.0000          0.0000          

STAT_BOX_0      141             

MOVE_BOX_1      182449          98772           54.1368         520000          

ENERGY_BOX_1    0.0000          0.0000          0.0000          0.0000          0.0000          0.0000          0.0000          0.0000          0.0000          0.0000          

STAT_BOX_1      461             

Steps/sec. : 4067.6480
MOVE_BOX_0      158983          79772           50.1764         0.6730          0               0               0.0000          0.7854          0               0               0.0000          185025          100263          54.1889         530000          

ENERGY_BOX_0    -80166.6510     0.0000          0.0000          -76446.1017     -3720.5493      0.0000          0.0000          0.0000          0.0000          0.0000          

STAT_BOX_0      197             

MOVE_BOX_1      185992          100458          54.0120         530000          

ENERGY_BOX_1    0.0000          0.0000          0.0000          0.0000          0.0000          0.0000          0.0000          0.0000          0.0000          0.0000          

STAT_BOX_1      405             

Steps/sec. : 4027.1627
MOVE_BOX_0      161973          81264           50.1713         0.6477          0               0               0.0000          0.7854          0               0               0.0000          188518          101778          53.9885         540000          

ENERGY_BOX_0    -72179.3062     0.0000          0.0000          -68826.8909     -3352.4154      0.0000          0.0000          0.0000          0.0000          0.0000          

STAT_BOX_0      187             

MOVE_BOX_1      189509          101963          53.8038         540000          

ENERGY_BOX_1    0.0000          0.0000          0.0000          0.0000          0.0000          0.0000          0.0000          0.0000          0.0000          0.0000          

STAT_BOX_1      415             

Steps/sec. : 3225.7242
MOVE_BOX_0      164930          82747           50.1710         0.6556          0               0               0.0000          0.7854          0               0               0.0000          191991          103113          53.7072         550000          

ENERGY_BOX_0    -72683.0720     0.0000          0.0000          -69185.7039     -3497.3681      0.0000          0.0000          0.0000          0.0000          0.0000          

STAT_BOX_0      191             

MOVE_BOX_1      193079          103302          53.5025         550000          

ENERGY_BOX_1    0.0000          0.0000          0.0000          0.0000          0.0000          0.0000          0.0000          0.0000          0.0000          0.0000          

STAT_BOX_1      411             

Steps/sec. : 3182.5778
MOVE_BOX_0      167925          84249           50.1706         0.6381          0               0               0.0000          0.7854          0               0               0.0000          195440          104623          53.5320         560000          

ENERGY_BOX_0    -85015.6962     0.0000          0.0000          -80907.8393     -4107.8568      0.0000          0.0000          0.0000          0.0000          0.0000          

STAT_BOX_0      207             

MOVE_BOX_1      196635          104828          53.3110         560000          

ENERGY_BOX_1    0.0000          0.0000          0.0000          0.0000          0.0000          0.0000          0.0000          0.0000          0.0000          0.0000          

STAT_BOX_1      395             

Steps/sec. : 3296.4906
MOVE_BOX_0      170894          85754           50.1796         0.7225          0               0               0.0000          0.7854          0               0               0.0000          198897          105824          53.2054         570000          

ENERGY_BOX_0    -74451.1241     0.0000          0.0000          -70805.7355     -3645.3886      0.0000          0.0000          0.0000          0.0000          0.0000          

STAT_BOX_0      195             

MOVE_BOX_1      200209          106017          52.9532         570000          

ENERGY_BOX_1    0.0000          0.0000          0.0000          0.0000          0.0000          0.0000          0.0000          0.0000          0.0000          0.0000          

STAT_BOX_1      407             

Steps/sec. : 2992.6214
MOVE_BOX_0      173906          87247           50.1691         0.6466          0               0               0.0000          0.7854          0               0               0.0000          202339          107377          53.0679         580000          

ENERGY_BOX_0    -79668.9385     0.0000          0.0000          -75757.1321     -3911.8063      0.0000          0.0000          0.0000          0.0000          0.0000          

STAT_BOX_0      202             

MOVE_BOX_1      203755          107577          52.7972         580000          

ENERGY_BOX_1    0.0000          0.0000          0.0000          0.0000          0.0000          0.0000          0.0000          0.0000          0.0000          0.0000          

STAT_BOX_1      400             

Steps/sec. : 3166.1861
MOVE_BOX_0      176936          88788           50.1809         0.7405          0               0               0.0000          0.7854          0               0               0.0000          205835          108920          52.9162         590000          

ENERGY_BOX_0    -73395.2529     0.0000          0.0000          -69861.1673     -3534.0856      0.0000          0.0000          0.0000          0.0000          0.0000          

STAT_BOX_0      192             

MOVE_BOX_1      207229          109110          52.6519         590000          

ENERGY_BOX_1    0.0000          0.0000          0.0000          0.0000          0.0000          0.0000          0.0000          0.0000          0.0000          0.0000          

STAT_BOX_1      410             

Steps/sec. : 3234.1339
MOVE_BOX_0      179891          90281           50.1865         0.7687          0               0               0.0000          0.7854          0               0               0.0000          209398          110297          52.6734         600000          

ENERGY_BOX_0    -77653.5510     0.0000          0.0000          -73970.6779     -3682.8731      0.0000          0.0000          0.0000          0.0000          0.0000          

STAT_BOX_0      196             

MOVE_BOX_1      210711          110491          52.4372         600000          

ENERGY_BOX_1    0.0000          0.0000          0.0000          0.0000          0.0000          0.0000          0.0000          0.0000          0.0000          0.0000          

STAT_BOX_1      406             

Steps/sec. : 3796.5057
MOVE_BOX_0      182918          91764           50.1667         0.5969          0               0               0.0000          0.7854          0               0               0.0000          212829          111559          52.4172         610000          

ENERGY_BOX_0    -93831.2587     0.0000          0.0000          -89316.9206     -4514.3380      0.0000          0.0000          0.0000          0.0000          0.0000          

STAT_BOX_0      217             

MOVE_BOX_1      214253          111774          52.1692         610000          

ENERGY_BOX_1    0.0000          0.0000          0.0000          0.0000          0.0000          0.0000          0.0000          0.0000          0.0000          0.0000          

STAT_BOX_1      385             

Steps/sec. : 3705.5373
MOVE_BOX_0      185877          93284           50.1859         0.7713          0               0               0.0000          0.7854          0               0               0.0000          216306          113158          52.3139         620000          

ENERGY_BOX_0    -57319.0396     0.0000          0.0000          -54548.4484     -2770.5912      0.0000          0.0000          0.0000          0.0000          0.0000          

STAT_BOX_0      170             

MOVE_BOX_1      217817          113326          52.0281         620000          

ENERGY_BOX_1    0.0000          0.0000          0.0000          0.0000          0.0000          0.0000          0.0000          0.0000          0.0000          0.0000          

STAT_BOX_1      432             

Steps/sec. : 3934.2862
MOVE_BOX_0      188904          94809           50.1890         0.8190          0               0               0.0000          0.7854          0               0               0.0000          219869          114820          52.2220         630000          

ENERGY_BOX_0    -53258.3945     0.0000          0.0000          -50711.2721     -2547.1224      0.0000          0.0000          0.0000          0.0000          0.0000          

STAT_BOX_0      163             

MOVE_BOX_1      221227          114981          51.9742         630000          

ENERGY_BOX_1    0.0000          0.0000          0.0000          0.0000          0.0000          0.0000          0.0000          0.0000          0.0000          0.0000          

STAT_BOX_1      439             

Steps/sec. : 3960.7130
MOVE_BOX_0      191975          96335           50.1810         0.7454          0               0               0.0000          0.7854          0               0               0.0000          223232          116163          52.0369         640000          

ENERGY_BOX_0    -93942.0440     0.0000          0.0000          -89427.7059     -4514.3380      0.0000          0.0000          0.0000          0.0000          0.0000          

STAT_BOX_0      217             

MOVE_BOX_1      224793          116378          51.7712         640000          

ENERGY_BOX_1    0.0000          0.0000          0.0000          0.0000          0.0000          0.0000          0.0000          0.0000          0.0000          0.0000          

STAT_BOX_1      385             

Steps/sec. : 3907.8267
MOVE_BOX_0      195010          97836           50.1697         0.6350          0               0               0.0000          0.7854          0               0               0.0000          226727          117648          51.8897         650000          

ENERGY_BOX_0    -87393.7049     0.0000          0.0000          -83165.9170     -4227.7880      0.0000          0.0000          0.0000          0.0000          0.0000          

STAT_BOX_0      210             

MOVE_BOX_1      228263          117856          51.6317         650000          

ENERGY_BOX_1    0.0000          0.0000          0.0000          0.0000          0.0000          0.0000          0.0000          0.0000          0.0000          0.0000          

STAT_BOX_1      392             

Steps/sec. : 3973.5728
MOVE_BOX_0      198065          99523           50.2476         1.6171          0               0               0.0000          0.7854          0               0               0.0000          230251          119729          51.9993         660000          

ENERGY_BOX_0    -4383.3397      0.0000          0.0000          -4222.1852      -161.1545       0.0000          0.0000          0.0000          0.0000          0.0000          

STAT_BOX_0      41              

MOVE_BOX_1      231684          119768          51.6945         660000          

ENERGY_BOX_1    0.0000          0.0000          0.0000          0.0000          0.0000          0.0000          0.0000          0.0000          0.0000          0.0000          

STAT_BOX_1      561             

Steps/sec. : 4240.6985
MOVE_BOX_0      201100          101055          50.2511         1.4111          0               0               0.0000          0.7854          0               0               0.0000          233741          122446          52.3853         670000          

ENERGY_BOX_0    -20960.0124     0.0000          0.0000          -20057.9885     -902.0240       0.0000          0.0000          0.0000          0.0000          0.0000          

STAT_BOX_0      97              

MOVE_BOX_1      235159          122541          52.1098         670000          

ENERGY_BOX_1    0.0000          0.0000          0.0000          0.0000          0.0000          0.0000          0.0000          0.0000          0.0000          0.0000          

STAT_BOX_1      505             

Steps/sec. : 4378.9220
MOVE_BOX_0      204108          102636          50.2851         2.1823          0               0               0.0000          0.7854          0               0               0.0000          237265          125162          52.7520         680000          

ENERGY_BOX_0    -8652.9522      0.0000          0.0000          -8247.9091      -405.0432       0.0000          0.0000          0.0000          0.0000          0.0000          

STAT_BOX_0      65              

MOVE_BOX_1      238627          125225          52.4773         680000          

ENERGY_BOX_1    0.0000          0.0000          0.0000          0.0000          0.0000          0.0000          0.0000          0.0000          0.0000          0.0000          

STAT_BOX_1      537             

Steps/sec. : 4460.3192
MOVE_BOX_0      207162          104149          50.2742         1.9292          0               0               0.0000          0.7854          0               0               0.0000          240779          127892          53.1159         690000          

ENERGY_BOX_0    -5491.5761      0.0000          0.0000          -5279.8032      -211.7729       0.0000          0.0000          0.0000          0.0000          0.0000          

STAT_BOX_0      47              

MOVE_BOX_1      242059          127937          52.8536         690000          

ENERGY_BOX_1    0.0000          0.0000          0.0000          0.0000          0.0000          0.0000          0.0000          0.0000          0.0000          0.0000          

STAT_BOX_1      555             

Steps/sec. : 4651.7842
MOVE_BOX_0      210068          105677          50.3061         3.1188          0               0               0.0000          0.7854          0               0               0.0000          244371          130789          53.5207         700000          

ENERGY_BOX_0    -2110.5646      0.0000          0.0000          -2006.1641      -104.4005       0.0000          0.0000          0.0000          0.0000          0.0000          

STAT_BOX_0      33              

MOVE_BOX_1      245561          130820          53.2739         700000          

ENERGY_BOX_1    0.0000          0.0000          0.0000          0.0000          0.0000          0.0000          0.0000          0.0000          0.0000          0.0000          

STAT_BOX_1      569             

Steps/sec. : 4778.4515
MOVE_BOX_0      213068          107074          50.2534         1.3900          0               0               0.0000          0.7854          0               0               0.0000          247840          133527          53.8763         710000          

ENERGY_BOX_0    -17822.8949     0.0000          0.0000          -16975.8034     -847.0915       0.0000          0.0000          0.0000          0.0000          0.0000          

STAT_BOX_0      94              

MOVE_BOX_1      249092          133619          53.6424         710000          

ENERGY_BOX_1    0.0000          0.0000          0.0000          0.0000          0.0000          0.0000          0.0000          0.0000          0.0000          0.0000          

STAT_BOX_1      508             

Steps/sec. : 3987.5700
MOVE_BOX_0      215994          108479          50.2232         0.9182          0               0               0.0000          0.7854          0               0               0.0000          251292          135759          54.0244         720000          

ENERGY_BOX_0    -63274.2319     0.0000          0.0000          -60338.2680     -2935.9639      0.0000          0.0000          0.0000          0.0000          0.0000          

STAT_BOX_0      175             

MOVE_BOX_1      252714          135932          53.7889         720000          

ENERGY_BOX_1    0.0000          0.0000          0.0000          0.0000          0.0000          0.0000          0.0000          0.0000          0.0000          0.0000          

STAT_BOX_1      427             

Steps/sec. : 3973.6782
MOVE_BOX_0      218994          110051          50.2530         1.3715          0               0               0.0000          0.7854          0               0               0.0000          254871          137859          54.0897         730000          

ENERGY_BOX_0    -12603.6117     0.0000          0.0000          -12078.6374     -524.9743       0.0000          0.0000          0.0000          0.0000          0.0000          

STAT_BOX_0      74              

MOVE_BOX_1      256135          137931          53.8509         730000          

ENERGY_BOX_1    0.0000          0.0000          0.0000          0.0000          0.0000          0.0000          0.0000          0.0000          0.0000          0.0000          

STAT_BOX_1      528             

Steps/sec. : 3859.1294
MOVE_BOX_0      221953          111619          50.2895         2.3456          0               0               0.0000          0.7854          0               0               0.0000          258381          140587          54.4107         740000          

ENERGY_BOX_0    -6626.2461      0.0000          0.0000          -6346.6944      -279.5517       0.0000          0.0000          0.0000          0.0000          0.0000          

STAT_BOX_0      54              

MOVE_BOX_1      259666          140639          54.1615         740000          

ENERGY_BOX_1    0.0000          0.0000          0.0000          0.0000          0.0000          0.0000          0.0000          0.0000          0.0000          0.0000          

STAT_BOX_1      548             

Steps/sec. : 4428.2960
MOVE_BOX_0      225000          113070          50.2533         1.4239          0               0               0.0000          0.7854          0               0               0.0000          261826          143121          54.6626         750000          

ENERGY_BOX_0    -28671.4364     0.0000          0.0000          -27425.5332     -1245.9032      0.0000          0.0000          0.0000          0.0000          0.0000          

STAT_BOX_0      114             

MOVE_BOX_1      263174          143233          54.4252         750000          

ENERGY_BOX_1    0.0000          0.0000          0.0000          0.0000          0.0000          0.0000          0.0000          0.0000          0.0000          0.0000          

STAT_BOX_1      488             

Steps/sec. : 4379.7180
MOVE_BOX_0      228023          114520          50.2230         0.8672          0               0               0.0000          0.7854          0               0               0.0000          265271          145203          54.7376         760000          

ENERGY_BOX_0    -67952.4476     0.0000          0.0000          -64706.7336     -3245.7140      0.0000          0.0000          0.0000          0.0000          0.0000          

STAT_BOX_0      184             

MOVE_BOX_1      266706          145385          54.5113         760000          

ENERGY_BOX_1    0.0000          0.0000          0.0000          0.0000          0.0000          0.0000          0.0000          0.0000          0.0000          0.0000          

STAT_BOX_1      418             

Steps/sec. : 3870.9832
MOVE_BOX_0      231026          116010          50.2151         0.7665          0               0               0.0000          0.7854          0               0               0.0000          268786          147158          54.7491         770000          

ENERGY_BOX_0    -80100.6645     0.0000          0.0000          -76188.8581     -3911.8063      0.0000          0.0000          0.0000          0.0000          0.0000          

STAT_BOX_0      202             

MOVE_BOX_1      270188          147358          54.5391         770000          

ENERGY_BOX_1    0.0000          0.0000          0.0000          0.0000          0.0000          0.0000          0.0000          0.0000          0.0000          0.0000          

STAT_BOX_1      400             

Steps/sec. : 3895.7863
MOVE_BOX_0      234007          117487          50.2066         0.6658          0               0               0.0000          0.7854          0               0               0.0000          272327          148723          54.6119         780000          

ENERGY_BOX_0    -73225.1105     0.0000          0.0000          -69727.7424     -3497.3681      0.0000          0.0000          0.0000          0.0000          0.0000          

STAT_BOX_0      191             

MOVE_BOX_1      273666          148912          54.4138         780000          

ENERGY_BOX_1    0.0000          0.0000          0.0000          0.0000          0.0000          0.0000          0.0000          0.0000          0.0000          0.0000          

STAT_BOX_1      411             

Steps/sec. : 3896.2687
MOVE_BOX_0      236922          118957          50.2094         0.7046          0               0               0.0000          0.7854          0               0               0.0000          275837          150234          54.4648         790000          

ENERGY_BOX_0    -82230.3626     0.0000          0.0000          -78318.5562     -3911.8063      0.0000          0.0000          0.0000          0.0000          0.0000          

STAT_BOX_0      202             

MOVE_BOX_1      277241          150434          54.2611         790000          

ENERGY_BOX_1    0.0000          0.0000          0.0000          0.0000          0.0000          0.0000          0.0000          0.0000          0.0000          0.0000          

STAT_BOX_1      400             

Steps/sec. : 3921.7487
MOVE_BOX_0      239910          120446          50.2047         0.6378          0               0               0.0000          0.7854          0               0               0.0000          279329          151473          54.2275         800000          

ENERGY_BOX_0    -78005.1425     0.0000          0.0000          -74284.5932     -3720.5493      0.0000          0.0000          0.0000          0.0000          0.0000          

STAT_BOX_0      197             

MOVE_BOX_1      280761          151668          54.0203         800000          

ENERGY_BOX_1    0.0000          0.0000          0.0000          0.0000          0.0000          0.0000          0.0000          0.0000          0.0000          0.0000          

STAT_BOX_1      405             

Steps/sec. : 3819.2690
MOVE_BOX_0      242925          121993          50.2184         0.8027          0               0               0.0000          0.7854          0               0               0.0000          282858          153062          54.1127         810000          

ENERGY_BOX_0    -61233.7431     0.0000          0.0000          -58463.1519     -2770.5912      0.0000          0.0000          0.0000          0.0000          0.0000          

STAT_BOX_0      170             

MOVE_BOX_1      284217          153230          53.9130         810000          

ENERGY_BOX_1    0.0000          0.0000          0.0000          0.0000          0.0000          0.0000          0.0000          0.0000          0.0000          0.0000          

STAT_BOX_1      432             

Steps/sec. : 3798.7745
MOVE_BOX_0      245915          123557          50.2438         1.1795          0               0               0.0000          0.7854          0               0               0.0000          286359          155061          54.1492         820000          

ENERGY_BOX_0    -21634.4173     0.0000          0.0000          -20597.5068     -1036.9105      0.0000          0.0000          0.0000          0.0000          0.0000          

STAT_BOX_0      104             

MOVE_BOX_1      287726          155163          53.9273         820000          

ENERGY_BOX_1    0.0000          0.0000          0.0000          0.0000          0.0000          0.0000          0.0000          0.0000          0.0000          0.0000          

STAT_BOX_1      498             

Steps/sec. : 3973.6500
MOVE_BOX_0      248876          124984          50.2194         0.8011          0               0               0.0000          0.7854          0               0               0.0000          289837          156935          54.1460         830000          

ENERGY_BOX_0    -64092.8486     0.0000          0.0000          -61055.3603     -3037.4883      0.0000          0.0000          0.0000          0.0000          0.0000          

STAT_BOX_0      178             

MOVE_BOX_1      291287          157111          53.9368         830000          

ENERGY_BOX_1    0.0000          0.0000          0.0000          0.0000          0.0000          0.0000          0.0000          0.0000          0.0000          0.0000          

STAT_BOX_1      424             

Steps/sec. : 3796.7738
MOVE_BOX_0      251944          126492          50.2064         0.6602          0               0               0.0000          0.7854          0               0               0.0000          293264          158422          54.0203         840000          

ENERGY_BOX_0    -85534.9181     0.0000          0.0000          -81466.6548     -4068.2633      0.0000          0.0000          0.0000          0.0000          0.0000          

STAT_BOX_0      206             

MOVE_BOX_1      294792          158626          53.8095         840000          

ENERGY_BOX_1    0.0000          0.0000          0.0000          0.0000          0.0000          0.0000          0.0000          0.0000          0.0000          0.0000          

STAT_BOX_1      396             

Steps/sec. : 3973.6767
MOVE_BOX_0      254945          127989          50.2026         0.6353          0               0               0.0000          0.7854          0               0               0.0000          296802          159819          53.8470         850000          

ENERGY_BOX_0    -88752.5022     0.0000          0.0000          -84484.3538     -4268.1485      0.0000          0.0000          0.0000          0.0000          0.0000          

STAT_BOX_0      211             

MOVE_BOX_1      298253          160028          53.6551         850000          

ENERGY_BOX_1    0.0000          0.0000          0.0000          0.0000          0.0000          0.0000          0.0000          0.0000          0.0000          0.0000          

STAT_BOX_1      391             

Steps/sec. : 3550.2124
MOVE_BOX_0      257968          129483          50.1934         0.5514          0               0               0.0000          0.7854          0               0               0.0000          300311          161079          53.6374         860000          

ENERGY_BOX_0    -93174.1206     0.0000          0.0000          -88618.0799     -4556.0407      0.0000          0.0000          0.0000          0.0000          0.0000          

STAT_BOX_0      218             

MOVE_BOX_1      301721          161295          53.4583         860000          

ENERGY_BOX_1    0.0000          0.0000          0.0000          0.0000          0.0000          0.0000          0.0000          0.0000          0.0000          0.0000          

STAT_BOX_1      384             

Steps/sec. : 3960.6405
MOVE_BOX_0      261038          131035          50.1977         0.5833          0               0               0.0000          0.7854          0               0               0.0000          303714          162315          53.4434         870000          

ENERGY_BOX_0    -74457.6566     0.0000          0.0000          -70923.5710     -3534.0856      0.0000          0.0000          0.0000          0.0000          0.0000          

STAT_BOX_0      192             

MOVE_BOX_1      305248          162505          53.2370         870000          

ENERGY_BOX_1    0.0000          0.0000          0.0000          0.0000          0.0000          0.0000          0.0000          0.0000          0.0000          0.0000          

STAT_BOX_1      410             

Steps/sec. : 3896.0656
MOVE_BOX_0      263999          132577          50.2188         0.8563          0               0               0.0000          0.7854          0               0               0.0000          307212          164080          53.4094         880000          

ENERGY_BOX_0    -71749.8488     0.0000          0.0000          -68289.0065     -3460.8423      0.0000          0.0000          0.0000          0.0000          0.0000          

STAT_BOX_0      190             

MOVE_BOX_1      308789          164268          53.1975         880000          

ENERGY_BOX_1    0.0000          0.0000          0.0000          0.0000          0.0000          0.0000          0.0000          0.0000          0.0000          0.0000          

STAT_BOX_1      412             

Steps/sec. : 3506.3802
MOVE_BOX_0      266975          134033          50.2043         0.6810          0               0               0.0000          0.7854          0               0               0.0000          310751          165560          53.2774         890000          

ENERGY_BOX_0    -78214.8034     0.0000          0.0000          -74494.2541     -3720.5493      0.0000          0.0000          0.0000          0.0000          0.0000          

STAT_BOX_0      197             

MOVE_BOX_1      312274          165755          53.0800         890000          

ENERGY_BOX_1    0.0000          0.0000          0.0000          0.0000          0.0000          0.0000          0.0000          0.0000          0.0000          0.0000          

STAT_BOX_1      405             

Steps/sec. : 2283.3646
MOVE_BOX_0      270013          135572          50.2094         0.7479          0               0               0.0000          0.7854          0               0               0.0000          314235          167100          53.1768         900000          

ENERGY_BOX_0    -53606.0585     0.0000          0.0000          -51212.8046     -2393.2539      0.0000          0.0000          0.0000          0.0000          0.0000          

STAT_BOX_0      158             

MOVE_BOX_1      315752          167256          52.9707         900000          

ENERGY_BOX_1    0.0000          0.0000          0.0000          0.0000          0.0000          0.0000          0.0000          0.0000          0.0000          0.0000          

STAT_BOX_1      444             

Steps/sec. : 2231.3897
MOVE_BOX_0      272985          137053          50.2053         0.7050          0               0               0.0000          0.7854          0               0               0.0000          317773          168934          53.1618         910000          

ENERGY_BOX_0    -75219.8749     0.0000          0.0000          -71648.8800     -3570.9949      0.0000          0.0000          0.0000          0.0000          0.0000          

STAT_BOX_0      193             

MOVE_BOX_1      319242          169125          52.9771         910000          

ENERGY_BOX_1    0.0000          0.0000          0.0000          0.0000          0.0000          0.0000          0.0000          0.0000          0.0000          0.0000          

STAT_BOX_1      409             

Steps/sec. : 2212.0860
MOVE_BOX_0      276064          138609          50.2090         0.7624          0               0               0.0000          0.7854          0               0               0.0000          321161          170344          53.0401         920000          

ENERGY_BOX_0    -63825.0936     0.0000          0.0000          -60718.9636     -3106.1299      0.0000          0.0000          0.0000          0.0000          0.0000          

STAT_BOX_0      180             

MOVE_BOX_1      322775          170522          52.8300         920000          

ENERGY_BOX_1    0.0000          0.0000          0.0000          0.0000          0.0000          0.0000          0.0000          0.0000          0.0000          0.0000          

STAT_BOX_1      422             

Steps/sec. : 2731.0465
MOVE_BOX_0      279047          140071          50.1962         0.6039          0               0               0.0000          0.7854          0               0               0.0000          324657          171982          52.9734         930000          

ENERGY_BOX_0    -89802.3215     0.0000          0.0000          -85452.8768     -4349.4447      0.0000          0.0000          0.0000          0.0000          0.0000          

STAT_BOX_0      213             

MOVE_BOX_1      326296          172193          52.7720         930000          

ENERGY_BOX_1    0.0000          0.0000          0.0000          0.0000          0.0000          0.0000          0.0000          0.0000          0.0000          0.0000          

STAT_BOX_1      389             

Steps/sec. : 2494.3348
MOVE_BOX_0      282068          141593          50.1982         0.6126          0               0               0.0000          0.7854          0               0               0.0000          328127          173212          52.7881         940000          

ENERGY_BOX_0    -80708.6193     0.0000          0.0000          -76988.0700     -3720.5493      0.0000          0.0000          0.0000          0.0000          0.0000          

STAT_BOX_0      197             

MOVE_BOX_1      329805          173407          52.5786         940000          

ENERGY_BOX_1    0.0000          0.0000          0.0000          0.0000          0.0000          0.0000          0.0000          0.0000          0.0000          0.0000          

STAT_BOX_1      405             

Steps/sec. : 2421.8686
MOVE_BOX_0      285045          143101          50.2030         0.6665          0               0               0.0000          0.7854          0               0               0.0000          331676          174465          52.6010         950000          

ENERGY_BOX_0    -74419.7772     0.0000          0.0000          -70958.9349     -3460.8423      0.0000          0.0000          0.0000          0.0000          0.0000          

STAT_BOX_0      190             

MOVE_BOX_1      333279          174653          52.4044         950000          

ENERGY_BOX_1    0.0000          0.0000          0.0000          0.0000          0.0000          0.0000          0.0000          0.0000          0.0000          0.0000          

STAT_BOX_1      412             

Steps/sec. : 2262.2469
MOVE_BOX_0      288059          144614          50.2029         0.6633          0               0               0.0000          0.7854          0               0               0.0000          335180          175838          52.4608         960000          

ENERGY_BOX_0    -82700.2173     0.0000          0.0000          -78671.3559     -4028.8614      0.0000          0.0000          0.0000          0.0000          0.0000          

STAT_BOX_0      205             

MOVE_BOX_1      336761          176041          52.2748         960000          

ENERGY_BOX_1    0.0000          0.0000          0.0000          0.0000          0.0000          0.0000          0.0000          0.0000          0.0000          0.0000          

STAT_BOX_1      397             

Steps/sec. : 2431.8339
MOVE_BOX_0      291112          146159          50.2071         0.6811          0               0               0.0000          0.7854          0               0               0.0000          338631          177246          52.3419         970000          

ENERGY_BOX_0    -65314.1978     0.0000          0.0000          -62138.6593     -3175.5385      0.0000          0.0000          0.0000          0.0000          0.0000          

STAT_BOX_0      182             

MOVE_BOX_1      340257          177426          52.1447         970000          

ENERGY_BOX_1    0.0000          0.0000          0.0000          0.0000          0.0000          0.0000          0.0000          0.0000          0.0000          0.0000          

STAT_BOX_1      420             

Steps/sec. : 2579.0233
MOVE_BOX_0      294132          147674          50.2067         0.6871          0               0               0.0000          0.7854          0               0               0.0000          342086          178724          52.2453         980000          

ENERGY_BOX_0    -72100.9107     0.0000          0.0000          -68566.8251     -3534.0856      0.0000          0.0000          0.0000          0.0000          0.0000          

STAT_BOX_0      192             

MOVE_BOX_1      343782          178914          52.0429         980000          

ENERGY_BOX_1    0.0000          0.0000          0.0000          0.0000          0.0000          0.0000          0.0000          0.0000          0.0000          0.0000          

STAT_BOX_1      410             

Steps/sec. : 2187.5969
MOVE_BOX_0      297103          149209          50.2213         0.8907          0               0               0.0000          0.7854          0               0               0.0000          345603          180854          52.3300         990000          

ENERGY_BOX_0    -42405.8750     0.0000          0.0000          -40362.3483     -2043.5267      0.0000          0.0000          0.0000          0.0000          0.0000          

STAT_BOX_0      146             

MOVE_BOX_1      347294          180998          52.1167         990000          

ENERGY_BOX_1    0.0000          0.0000          0.0000          0.0000          0.0000          0.0000          0.0000          0.0000          0.0000          0.0000          

STAT_BOX_1      456             

Steps/sec. : 2005.5658
MOVE_BOX_0      300016          150632          50.2080         0.6801          0               0               0.0000          0.7854          0               0               0.0000          349146          182264          52.2028         1000000         

ENERGY_BOX_0    -69294.6806     0.0000          0.0000          -66048.9665     -3245.7140      0.0000          0.0000          0.0000          0.0000          0.0000          

STAT_BOX_0      184             

MOVE_BOX_1      350838          182446          52.0029         1000000         

ENERGY_BOX_1    0.0000          0.0000          0.0000          0.0000          0.0000          0.0000          0.0000          0.0000          0.0000          0.0000          

STAT_BOX_1      418             

Simulation Time (total): 170.4578sec.
GOMC Serial Version 1.9
Completed at: Fri Dec  9 11:33:59 2016
On hostname: potoff39.eng.wayne.edu
