GOMC Serial Version 2.0
Started at: Sat Apr 22 20:05:32 2017
On hostname: potoff39.eng.wayne.edu

Total number of CPUs: 4
Total number of CPUs available: 4
Model name: Intel(R) Core(TM) i5-2500K CPU @ 3.30GHz

System name: Linux
Release: 2.6.32-642.4.2.el6.x86_64
Version: #1 SMP Tue Aug 23 19:58:13 UTC 2016
Kernel Architecture: x86_64
Total Ram: 7856.3MB
Used Ram: 5372.5MB
Working in the current directory /home3/soroush/Desktop/validation/GOMC_Examples/NVT_GEMC/pure_fluid/octane_T_360_00_K

------------------------------------------------------
This code was compiled to support the Gibbs ensemble.
------------------------------------------------------

REMINDER: EXOTIC force field has been selected!
NVT_GEMC simulation has been selected 
Temperature of system has been set to 360.00000 K 
Note: Pressure will be calculated every 1000 steps.
By default intra box swap frequency has been set to zero
Warning: Electrostatic energy would not be calculated!
Reading from Exotic Parameter File file: ./../../../common/Par_Mie_Alkane_Exotic.inp
Finished reading Exotic Parameter File file: ./../../../common/Par_Mie_Alkane_Exotic.inp
Reading from Box 1 PDB coordinate file file: ./STEP3_START_C8P_sys_BOX_0.pdb
Finished reading Box 1 PDB coordinate file file: ./STEP3_START_C8P_sys_BOX_0.pdb
Reading from Box 2 PDB coordinate file file: ./STEP3_START_C8P_sys_BOX_1.pdb
Finished reading Box 2 PDB coordinate file file: ./STEP3_START_C8P_sys_BOX_1.pdb
Random number seed: 382013650

Molecules in PSF:
Molecule Kind: C8P
Idx	name	type	charge	mass
0	C1	CH3	0.0000	15.0350
1	C2	CH2	0.0000	14.0270
2	C3	CH2	0.0000	14.0270
3	C4	CH2	0.0000	14.0270
4	C5	CH2	0.0000	14.0270
5	C6	CH2	0.0000	14.0270
6	C7	CH2	0.0000	14.0270
7	C8	CH3	0.0000	15.0350
Bonds:
[0 1] [1 2] [2 3] [3 4] [4 5] [5 6] [6 7] 
Angles:
[0 1 2] [1 2 3] [2 3 4] [3 4 5] [4 5 6] [5 6 7] 
Dihedrals:
[0 1 2 3] [1 2 3 4] [2 3 4 5] [3 4 5 6] [4 5 6 7] 

REMINDER! 1-3 and 1-4 Interaction is OFF
Minimum coordinates in box 0: x =    0.000, y =    0.000, z =    0.000
Maximum coordinates in box 0: x =   42.000, y =   42.000, z =   42.000
Minimum coordinates in box 1: x =    0.500, y =    1.366, z =    0.641
Maximum coordinates in box 1: x =  266.999, y =  266.784, z =  266.454

###############################################################################
########################## INITIAL SIMULATION ENERGY ##########################

ETITLE:     STEP           TOTAL        INTRA(B)       INTRA(NB)       INTER(LJ)             LRC     TOTAL_ELECT            REAL           RECIP            SELF            CORR

ENER_0:        0 5705815089.1360         27.4931     -97438.5432 5706222767.0050    -310266.8188          0.0000          0.0000          0.0000          0.0000         -0.0000

ENER_1:        0      45806.6137         27.2571     -97438.9656     144566.8877      -1348.5655          0.0000          0.0000          0.0000          0.0000         -0.0000

###############################################################################
############################# STARTING SIMULATION #############################

MTITLE:     STEP          DISTRY       DISACCEPT      DISACCEPT%          DISMAX          ROTATE       ROTACCEPT      ROTACCEPT%          ROTMAX       INTRASWAP       INTACCEPT      INTACCEPT%        TRANSFER      TRANACCEPT     TRANACCEPT%          VOLUME       VOLACCEPT      VOLACCEPT%          VOLMAX

ETITLE:     STEP           TOTAL        INTRA(B)       INTRA(NB)       INTER(LJ)             LRC     TOTAL_ELECT            REAL           RECIP            SELF            CORR

STITLE:     STEP          VOLUME        PRESSURE        TOTALMOL     TOT_DENSITY

Printed combined psf to file octane_360_00_K_merged.psf
MOVE_0:   100000           34731           17218         49.5753          0.3119            5095            2586         50.7556          0.2794               0               0          0.0000            9834             447          4.5455             993             539         54.2800        310.6667

ENER_0:   100000    -568263.2912     658735.5540     -81330.3970   -1046873.2324     -98795.2158          0.0000          0.0000          0.0000          0.0000          0.0000

STAT_0:   100000      96291.0588       -275.2777             301        592.9492

PRES_0:   100000         97.0087       -164.6693       -374.3782

MOVE_1:   100000           34267           25617         74.7571        134.4731            5054            4422         87.4951          3.1416               0               0          0.0000           10026             248          2.4736             993             539         54.2800        310.6667

ENER_1:   100000     726450.7340     991566.6960    -176414.7078     -86064.0289      -2637.2252          0.0000          0.0000          0.0000          0.0000          0.0000

STAT_1:   100000   19453422.4602          1.6440             699          6.8158

PRES_1:   100000         -0.1335          0.0695         -0.2494

Steps/sec. : 961.7171
MOVE_0:   200000           69050           34394         49.8103          0.2681           10002            5096         50.9498          0.2819               0               0          0.0000           19706             452          2.2937            1992            1080         54.2169       1079.2510

ENER_0:   200000    -631535.3399     682778.6851     -84409.5983   -1123536.2985    -106368.1282          0.0000          0.0000          0.0000          0.0000          0.0000

STAT_0:   200000      96091.8503         65.2246             312        615.8926

PRES_0:   200000         41.3382        298.6054        288.5333

MOVE_1:   200000           69118           51086         73.9113        134.4735           10043            8704         86.6673          3.1416               0               0          0.0000           20089             264          1.3142            1992            1080         54.2169       1079.2510

ENER_1:   200000     720409.6728     987436.2485    -173867.1479     -90604.5784      -2554.8493          0.0000          0.0000          0.0000          0.0000          0.0000

STAT_1:   200000   19453621.6687          1.6390             688          6.7085

PRES_1:   200000          0.0662         -0.2247         -0.0891

Steps/sec. : 897.7613
MOVE_0:   300000          103399           51612         49.9154          0.2777           14965            7606         50.8253          0.2139               0               0          0.0000           29819             458          1.5359            3037            1646         54.1982       1390.7020

ENER_0:   300000    -668722.1765     702787.6298     -83652.5888   -1177960.4571    -109896.7604          0.0000          0.0000          0.0000          0.0000          0.0000

STAT_0:   300000      96011.3374       -229.4566             317        626.2874

PRES_0:   300000        -23.1941       -192.2927        -17.0380

MOVE_1:   300000          103605           76107         73.4588        134.4737           15069           12937         85.8517          3.1416               0               0          0.0000           30106             275          0.9134            3037            1646         54.1982       1390.7020

ENER_1:   300000     711122.9130     975188.5477    -172330.6473     -89217.1480      -2517.8394          0.0000          0.0000          0.0000          0.0000          0.0000

STAT_1:   300000   19453702.1816          1.4314             683          6.6597

PRES_1:   300000         -0.3436         -0.2479         -0.2424

Steps/sec. : 1006.4304
MOVE_0:   400000          138134           69013         49.9609          0.2627           19929           10124         50.8003          0.2166               0               0          0.0000           39827             467          1.1726            4041            2180         53.9470        703.3694

ENER_0:   400000    -685708.5767     697165.6042     -85268.1380   -1187009.6051    -110596.4378          0.0000          0.0000          0.0000          0.0000          0.0000

STAT_0:   400000      95403.9312         36.7693             317        630.2748

PRES_0:   400000        270.7743        234.3138         70.0421

MOVE_1:   400000          138028          101190         73.3112        134.4751           20128           17220         85.5525          3.1416               0               0          0.0000           39913             284          0.7115            4041            2180         53.9470        703.3694

ENER_1:   400000     719586.9826     987778.5125    -172557.5462     -93116.2229      -2517.7608          0.0000          0.0000          0.0000          0.0000          0.0000

STAT_1:   400000   19454309.5878          1.4046             683          6.6595

PRES_1:   400000         -0.5406         -0.0745         -0.2988

Steps/sec. : 1108.6916
MOVE_0:   500000          172550           86257         49.9896          0.2582           24926           12655         50.7703          0.2342               0               0          0.0000           49837             470          0.9431            5020            2710         53.9841       1041.1163

ENER_0:   500000    -707197.0952     696741.8266     -85337.3909   -1207258.6244    -111342.9065          0.0000          0.0000          0.0000          0.0000          0.0000

STAT_0:   500000      95363.1462       -191.6816             318        632.5334

PRES_0:   500000       -102.6862         72.3729        -74.7898

MOVE_1:   500000          172610          125851         72.9106        134.4752           25225           21471         85.1179          3.1416               0               0          0.0000           49832             288          0.5779            5020            2710         53.9841       1041.1163

ENER_1:   500000     704345.4431     988461.0224    -172303.1344    -109302.0566      -2510.3883          0.0000          0.0000          0.0000          0.0000          0.0000

STAT_1:   500000   19454350.3728          1.7018             682          6.6497

PRES_1:   500000         -0.0050          0.2488         -0.2588

Steps/sec. : 1120.7749
MOVE_0:   600000          207120          103590         50.0145          0.2712           29900           15170         50.7358          0.2367               0               0          0.0000           59843             472          0.7887            6057            3280         54.1522        689.3144

ENER_0:   600000    -719040.4049     706352.5780     -86167.8059   -1225955.0055    -113270.1714          0.0000          0.0000          0.0000          0.0000          0.0000

STAT_0:   600000      95517.5978       -132.6841             321        637.4683

PRES_0:   600000         76.2246         72.2575        -65.3219

MOVE_1:   600000          207075          150696         72.7736        134.4749           30295           25724         84.9117          3.1416               0               0          0.0000           59710             293          0.4907            6057            3280         54.1522        689.3144

ENER_1:   600000     701378.2311     985889.1000    -171426.1307    -110596.3672      -2488.3711          0.0000          0.0000          0.0000          0.0000          0.0000

STAT_1:   600000   19454195.9212          1.9221             679          6.6205

PRES_1:   600000          0.4373         -0.4679          0.6985

Steps/sec. : 1104.6236
MOVE_0:   700000          241612          120878         50.0298          0.2681           34951           17745         50.7711          0.2672               0               0          0.0000           69876             478          0.6841            7030            3805         54.1252        608.7696

ENER_0:   700000    -723083.0307     721468.5786     -87746.0495   -1241881.0500    -114924.5099          0.0000          0.0000          0.0000          0.0000          0.0000

STAT_0:   700000      95910.5199        -90.7673             324        640.7900

PRES_0:   700000         40.7158         51.1728        124.6745

MOVE_1:   700000          241487          174830         72.3973        134.4740           35329           29878         84.5707          3.1416               0               0          0.0000           69715             302          0.4332            7030            3805         54.1252        608.7696

ENER_1:   700000     718868.1868     989184.3081    -170777.6614     -97071.9790      -2466.4809          0.0000          0.0000          0.0000          0.0000          0.0000

STAT_1:   700000   19453802.9991          1.2798             676          6.5914

PRES_1:   700000         -0.4248         -0.3103         -0.5020

Steps/sec. : 1140.8522
MOVE_0:   800000          275950          138099         50.0449          0.2715           39937           20265         50.7424          0.2510               0               0          0.0000           79982             480          0.6001            8055            4359         54.1155        845.2292

ENER_0:   800000    -756919.8035     727908.8404     -88350.9789   -1278600.3083    -117877.3567          0.0000          0.0000          0.0000          0.0000          0.0000

STAT_0:   800000      94665.9280        143.9278             326        653.2221

PRES_0:   800000        463.6380        157.1962        328.9297

MOVE_1:   800000          276059          199031         72.0973        134.4768           40264           33984         84.4029          3.1416               0               0          0.0000           79753             306          0.3837            8055            4359         54.1155        845.2292

ENER_1:   800000     723633.8796     994768.2076    -170619.3883     -98063.1886      -2451.7511          0.0000          0.0000          0.0000          0.0000          0.0000

STAT_1:   800000   19455047.5910          1.4489             674          6.5715

PRES_1:   800000         -0.3617         -0.0742         -0.2789

Steps/sec. : 1099.0952
MOVE_0:   900000          310415          155359         50.0488          0.2489           44884           22770         50.7308          0.2373               0               0          0.0000           89912             484          0.5383            9044            4892         54.0911       1053.0024

ENER_0:   900000    -773045.9417     727920.3277     -88521.5303   -1294764.9222    -117679.8170          0.0000          0.0000          0.0000          0.0000          0.0000

STAT_0:   900000      95407.4759       -184.9478             327        650.1331

PRES_0:   900000        174.8534       -162.1243        -56.8960

MOVE_1:   900000          310721          224249         72.1705        134.4751           45189           38152         84.4276          3.1416               0               0          0.0000           89835             311          0.3462            9044            4892         54.0911       1053.0024

ENER_1:   900000     729432.1554    1003315.5007    -170772.1811    -100666.5898      -2444.5745          0.0000          0.0000          0.0000          0.0000          0.0000

STAT_1:   900000   19454306.0431          1.3773             673          6.5620

PRES_1:   900000         -0.4156         -0.1209         -0.3858

Steps/sec. : 1110.9567
MOVE_0:  1000000          344799          172587         50.0544          0.2575           49896           25316         50.7375          0.2076               0               0          0.0000           99696             490          0.4915           10037            5416         53.9603        883.7757

ENER_0:  1000000    -774169.7583     726699.3542     -86461.7465   -1295603.9841    -118803.3819          0.0000          0.0000          0.0000          0.0000          0.0000

STAT_0:  1000000      94505.1742        223.9886             327        656.3403

PRES_0:  1000000        619.7747        425.9650        151.6268

MOVE_1:  1000000          345445          249285         72.1634        134.4772           50220           42378         84.3847          3.1416               0               0          0.0000           99907             317          0.3173           10037            5416         53.9603        883.7757

ENER_1:  1000000     760603.2622    1012467.1240    -171196.9174     -78222.4833      -2444.4611          0.0000          0.0000          0.0000          0.0000          0.0000

STAT_1:  1000000   19455208.3448          1.4232             673          6.5617

PRES_1:  1000000         -0.3905         -0.5606          0.1666

Simulation Time (total): 943.6904sec.
GOMC Serial Version 2.0
Completed at: Sat Apr 22 20:21:16 2017
On hostname: potoff39.eng.wayne.edu
