GOMC Serial Version 1.9
Started at: Fri Dec  9 12:34:47 2016
On hostname: potoff39.eng.wayne.edu

Total number of CPUs: 4
Total number of CPUs available: 4
Model name: Intel(R) Core(TM) i5-2500K CPU @ 3.30GHz

System name: Linux
Release: 2.6.32-642.4.2.el6.x86_64
Version: #1 SMP Tue Aug 23 19:58:13 UTC 2016
Kernel Architecture: x86_64
Total Ram: 7856.3MB
Used Ram: 5561.2MB
Working in the current directory /home3/soroush/Desktop/validation/GOMC_Serial-development_1.90/GOMC_Examples-master/NVT_GEMC/pure_fluid/octane_T_360_00_K

------------------------------------------------------
This code was compiled to support the Gibbs ensemble.
------------------------------------------------------

REMINDER: EXOTIC force field has been selected!
NVT_GEMC simulation has been selected 
Temperature of system has been set to 360.0 K 
By default intra box swap frequency has been set to zero
Warning: Electrostatic energy would not be calculated!
Reading from Exotic Parameter File file: ./../../../common/Par_Mie_Alkane_Exotic.inp

Finished reading Exotic Parameter File file: ./../../../common/Par_Mie_Alkane_Exotic.inp

Reading from Box 1 PDB coordinate file file: ./STEP3_START_C8P_sys_BOX_0.pdb

Finished reading Box 1 PDB coordinate file file: ./STEP3_START_C8P_sys_BOX_0.pdb

Reading from Box 2 PDB coordinate file file: ./STEP3_START_C8P_sys_BOX_1.pdb

Finished reading Box 2 PDB coordinate file file: ./STEP3_START_C8P_sys_BOX_1.pdb

Random number seed: 2704520473

Molecules in PSF:

Molecule Kind: C8P
Idx	name	type	charge	mass
0	C1	CH3	0.0	15.0
1	C2	CH2	0.0	14.0
2	C3	CH2	0.0	14.0
3	C4	CH2	0.0	14.0
4	C5	CH2	0.0	14.0
5	C6	CH2	0.0	14.0
6	C7	CH2	0.0	14.0
7	C8	CH3	0.0	15.0

Bonds:
[0 1] [1 2] [2 3] [3 4] [4 5] [5 6] [6 7] 

Angles:
[0 1 2] [1 2 3] [2 3 4] [3 4 5] [4 5 6] [5 6 7] 

Dihedrals:
[0 1 2 3] [1 2 3 4] [2 3 4 5] [3 4 5 6] [4 5 6 7] 

REMINDER! 1-3 and 1-4 Interaction is OFF


########################## INITIAL SIMULATION ENERGY ##########################
ETITLE_BOX_0    TOTAL           INTRA(B)        INTRA(N)        INTER(LJ)       LRC             TOTAL_ELECT     REAL            RECIP           SELF            CORR            

ENERGY_BOX_0    5705815089.1360 27.4931         -97438.5432     5706222767.0050 -310266.8188    0.0000          0.0000          0.0000          0.0000          -0.0000         

ETITLE_BOX_1    TOTAL           INTRA(B)        INTRA(N)        INTER(LJ)       LRC             TOTAL_ELECT     REAL            RECIP           SELF            CORR            

ENERGY_BOX_1    45806.6137      27.2571         -97438.9656     144566.8877     -1348.5655      0.0000          0.0000          0.0000          0.0000          -0.0000         

###############################################################################

############################# STARTING SIMULATION #############################
MTITLE_BOX_0    DISTRY          DISACCEPT       DISACCEPT%      DISMAX          ROTATE          ROTACCEPT       ROTACCEPT%      ROTMAX          INTRASWAP       INTACCEPT       INTACCEPT%      TRANSFER        TRANACCEPT      TRANACCEPT%     VOLUME          VOLACCEPT       VOLACCEPT%      VOLMAX          STEP            

ETITLE_BOX_0    TOTAL           INTRA(B)        INTRA(N)        INTER(LJ)       LRC             TOTAL_ELECT     REAL            RECIP           SELF            CORR            
STITLE_BOX_0    VOLUME          PRESSURE        TOTALMOL        TOT_DENSITY     

MTITLE_BOX_1    DISTRY          DISACCEPT       DISACCEPT%      DISMAX          ROTATE          ROTACCEPT       ROTACCEPT%      ROTMAX          INTRASWAP       INTACCEPT       INTACCEPT%      TRANSFER        TRANACCEPT      TRANACCEPT%     VOLUME          VOLACCEPT       VOLACCEPT%      VOLMAX          STEP            

ETITLE_BOX_1    TOTAL           INTRA(B)        INTRA(N)        INTER(LJ)       LRC             TOTAL_ELECT     REAL            RECIP           SELF            CORR            
STITLE_BOX_1    VOLUME          PRESSURE        TOTALMOL        TOT_DENSITY     

Printed combined psf to file octane_360_00_K.psf
MOVE_BOX_0      34695           17132           49.3789         0.2754          5043            2559            50.7436         0.3304          0               0               0.0000          9953            452             4.5413          1010            541             53.5644         1244.0623       100000          

ENERGY_BOX_0    -572513.7520    740172.5975     -87713.7848     -1117587.2139   -107385.3508    0.0000          0.0000          0.0000          0.0000          0.0000          

STAT_BOX_0      102011.4426     27.1249         323             600.6072        

MOVE_BOX_1      34351           25810           75.1361         134.4599        5035            4370            86.7925         3.1416          0               0               0.0000          9913            275             2.7741          0               0               0.0000          500.0000        100000          

ENERGY_BOX_1    682243.3793     937519.4402     -166714.7845    -86086.7167     -2474.5597      0.0000          0.0000          0.0000          0.0000          0.0000          

STAT_BOX_1      19447702.0764   1.3139          677             6.6032          

Steps/sec. : 1363.3996
MOVE_BOX_0      69188           34447           49.7875         0.2930          10081           5107            50.6597         0.2590          0               0               0.0000          19960           467             2.3397          2016            1089            54.0179         1077.6852       200000          

ENERGY_BOX_0    -652532.1225    749398.7718     -89235.5128     -1199737.8264   -112957.5550    0.0000          0.0000          0.0000          0.0000          0.0000          

STAT_BOX_0      101228.1922     81.5423         330             618.3714        

MOVE_BOX_1      68901           51610           74.9046         134.4617        9965            8654            86.8440         3.1416          0               0               0.0000          19889           297             1.4933          0               0               0.0000          500.0000        200000          

ENERGY_BOX_1    717898.8300     949785.0495     -165594.4405    -63868.2249     -2423.5540      0.0000          0.0000          0.0000          0.0000          0.0000          

STAT_BOX_1      19448485.3268   1.3475          670             6.5347          

Steps/sec. : 1277.9283
MOVE_BOX_0      103442          51567           49.8511         0.2390          15038           7638            50.7913         0.2529          0               0               0.0000          30152           474             1.5720          3010            1614            53.6213         858.3586        300000          

ENERGY_BOX_0    -676308.0651    749366.0217     -90293.0200     -1220940.6708   -114440.3960    0.0000          0.0000          0.0000          0.0000          0.0000          

STAT_BOX_0      99916.5460      116.7551        330             626.4890        

MOVE_BOX_1      103595          77138           74.4611         134.4647        14944           12925           86.4896         3.1416          0               0               0.0000          29819           304             1.0195          0               0               0.0000          500.0000        300000          

ENERGY_BOX_1    718912.0564     966814.6015     -166315.4296    -79163.7249     -2423.3906      0.0000          0.0000          0.0000          0.0000          0.0000          

STAT_BOX_1      19449796.9730   1.7013          670             6.5343          

Steps/sec. : 1307.3153
MOVE_BOX_0      137872          68853           49.9398         0.2725          20045           10167           50.7209         0.2145          0               0               0.0000          40282           480             1.1916          3953            2112            53.4278         1465.8739       400000          

ENERGY_BOX_0    -704347.5483    765673.8013     -93042.5226     -1259726.4079   -117252.4192    0.0000          0.0000          0.0000          0.0000          0.0000          

STAT_BOX_0      100497.8306     110.5823        335             632.3027        

MOVE_BOX_1      138118          102865          74.4762         134.4634        19872           17199           86.5489         3.1416          0               0               0.0000          39858           315             0.7903          0               0               0.0000          500.0000        400000          

ENERGY_BOX_1    714796.6587     961641.6769     -165436.5334    -79021.0580     -2387.4269      0.0000          0.0000          0.0000          0.0000          0.0000          

STAT_BOX_1      19449215.6884   1.3319          665             6.4857          

Steps/sec. : 1406.9444
MOVE_BOX_0      172493          86214           49.9812         0.2784          25041           12707           50.7448         0.2871          0               0               0.0000          50478           483             0.9569          4977            2660            53.4459         852.7705        500000          

ENERGY_BOX_0    -718044.3950    765182.0240     -93411.1125     -1271750.9137   -118064.3928    0.0000          0.0000          0.0000          0.0000          0.0000          

STAT_BOX_0      99806.6689      191.2396        335             636.6814        

MOVE_BOX_1      172290          127895          74.2324         134.4650        24820           21404           86.2369         3.1416          0               0               0.0000          49901           318             0.6373          0               0               0.0000          500.0000        500000          

ENERGY_BOX_1    690454.1261     964070.3282     -165327.8195    -105901.0406    -2387.3421      0.0000          0.0000          0.0000          0.0000          0.0000          

STAT_BOX_1      19449906.8501   1.5851          665             6.4855          

Steps/sec. : 1333.3907
MOVE_BOX_0      206998          103489          49.9952         0.2588          30029           15225           50.7010         0.2371          0               0               0.0000          60450           488             0.8073          6008            3215            53.5120         1878.3064       600000          

ENERGY_BOX_0    -728734.2970    777880.5788     -94743.9497     -1292313.5504   -119557.3757    0.0000          0.0000          0.0000          0.0000          0.0000          

STAT_BOX_0      100333.4884     24.1391         338             639.0101        

MOVE_BOX_1      206955          153273          74.0610         134.4638        29699           25565           86.0803         3.1416          0               0               0.0000          59861           326             0.5446          0               0               0.0000          500.0000        600000          

ENERGY_BOX_1    714061.2618     970275.8890     -164812.8131    -89035.8993     -2365.9148      0.0000          0.0000          0.0000          0.0000          0.0000          

STAT_BOX_1      19449380.0306   1.3150          662             6.4564          

Steps/sec. : 1320.6951
MOVE_BOX_0      241576          120837          50.0203         0.2658          35041           17778           50.7349         0.2023          0               0               0.0000          70486           490             0.6952          7025            3779            53.7936         1169.5809       700000          

ENERGY_BOX_0    -725565.3069    780289.3485     -94336.2374     -1290860.2436   -120658.1744    0.0000          0.0000          0.0000          0.0000          0.0000          

STAT_BOX_0      100007.2606     236.4068        339             642.9913        

MOVE_BOX_1      241466          177796          73.6319         134.4645        34678           29742           85.7662         3.1416          0               0               0.0000          69728           329             0.4718          0               0               0.0000          500.0000        700000          

ENERGY_BOX_1    724694.9722     972624.9256     -164418.9402    -81152.2803     -2358.7329      0.0000          0.0000          0.0000          0.0000          0.0000          

STAT_BOX_1      19449706.2584   1.4031          661             6.4465          

Steps/sec. : 1340.1039
MOVE_BOX_0      275874          138033          50.0348         0.2702          40082           20331           50.7235         0.2655          0               0               0.0000          80586           494             0.6130          7992            4311            53.9414         2327.1730       800000          

ENERGY_BOX_0    -715604.9234    781649.2872     -94690.2658     -1283420.2543   -119143.6906    0.0000          0.0000          0.0000          0.0000          0.0000          

STAT_BOX_0      101876.8880     -2.5663         340             633.0532        

MOVE_BOX_1      275959          202430          73.3551         134.4602        39714           33991           85.5895         3.1416          0               0               0.0000          79793           334             0.4186          0               0               0.0000          500.0000        800000          

ENERGY_BOX_1    700956.0336     975969.0546     -164580.9915    -108080.2020    -2351.8275      0.0000          0.0000          0.0000          0.0000          0.0000          

STAT_BOX_1      19447836.6310   1.4291          660             6.4374          

Steps/sec. : 1367.8545
MOVE_BOX_0      310491          155391          50.0469         0.2757          45077           22855           50.7021         0.1671          0               0               0.0000          90596           500             0.5519          8980            4819            53.6637         889.1000        900000          

ENERGY_BOX_0    -726847.1425    777912.9605     -95271.8009     -1289663.2370   -119825.0651    0.0000          0.0000          0.0000          0.0000          0.0000          

STAT_BOX_0      101297.5743     14.9830         340             636.6735        

MOVE_BOX_1      310464          227481          73.2713         134.4615        44613           38093           85.3854         3.1416          0               0               0.0000          89779           340             0.3787          0               0               0.0000          500.0000        900000          

ENERGY_BOX_1    733800.7838     994218.0766     -164996.0027    -93069.5326     -2351.7574      0.0000          0.0000          0.0000          0.0000          0.0000          

STAT_BOX_1      19448415.9447   1.2907          660             6.4372          

Steps/sec. : 1351.4748
MOVE_BOX_0      345083          172718          50.0511         0.2577          49995           25356           50.7171         0.1658          0               0               0.0000          100737          502             0.4983          9916            5340            53.8524         1128.2950       1000000         

ENERGY_BOX_0    -752089.7206    780487.2699     -95664.4782     -1315605.0185   -121307.4937    0.0000          0.0000          0.0000          0.0000          0.0000          

STAT_BOX_0      100649.1271     -43.2492        341             642.6600        

MOVE_BOX_1      344820          252052          73.0967         134.4630        49628           42322           85.2785         3.1416          0               0               0.0000          99821           343             0.3436          0               0               0.0000          500.0000        1000000         

ENERGY_BOX_1    727949.4600     994128.4640     -164670.4625    -99163.9834     -2344.5581      0.0000          0.0000          0.0000          0.0000          0.0000          

STAT_BOX_1      19449064.3919   1.6633          659             6.4272          

Simulation Time (total): 744.0650sec.
GOMC Serial Version 1.9
Completed at: Fri Dec  9 12:47:12 2016
On hostname: potoff39.eng.wayne.edu
