GOMC Serial Version 2.0
Started at: Mon Apr 24 19:27:39 2017
On hostname: potoff13.eng.wayne.edu

Total number of CPUs: 32
Total number of CPUs available: 32
Model name: Intel(R) Xeon(R) CPU E5-2640 v3 @ 2.60GHz

System name: Linux
Release: 3.10.0-327.4.5.el7.x86_64
Version: #1 SMP Mon Jan 25 13:30:47 CST 2016
Kernel Architecture: x86_64
Total Ram: 31904.2MB
Used Ram: 28278.7MB
Working in the current directory /home3/soroush/Desktop/validation/GOMC_Examples/NVT/DME_290_00_K

------------------------------------------------------
This code was compiled to support the canonical (NVT) ensemble.
------------------------------------------------------

Number of threads has been set to: 4
REMINDER: EXOTIC force field has been selected!
Temperature of system has been set to 320.00000 K 
Cut off  is set to 10.00000 A.
Cut off Low is set to 1.00000 A.
Ewald Summation method will be used to calculate electrostatic interactions.
Note: Pressure will be calculated every 1000 steps.
Warning: By default, Fourier terms of ewald method will be cached!
Reading from Exotic Parameter File file: ./../../common/Par_DME_Exotic.inp
Finished reading Exotic Parameter File file: ./../../common/Par_DME_Exotic.inp
Reading from system PDB coordinate file file: ./STEP3_START_DME_BOX_0.pdb
Finished reading system PDB coordinate file file: ./STEP3_START_DME_BOX_0.pdb
Random number seed: 1213856714

Molecules in PSF:
Molecule Kind: DME
Idx	name	type	charge	mass
0	C1	CT3	0.2650	15.0347
1	O1	OT	-0.5300	15.9994
2	C2	CT3	0.2650	15.0347
Bonds:
[0 1] [1 2] 
Angles:
[0 1 2] 
Dihedrals:

REMINDER! 1-3 and 1-4 Interaction is OFF
Minimum coordinates in box 0: x =    0.367, y =    0.284, z =    0.133
Maximum coordinates in box 0: x =   70.038, y =   70.118, z =   69.555
Box 0, RecipVectors:  35663, kmax: 26, alpha: 0.3393076

###############################################################################
########################## INITIAL SIMULATION ENERGY ##########################

ETITLE:     STEP           TOTAL        INTRA(B)       INTRA(NB)       INTER(LJ)             LRC     TOTAL_ELECT            REAL           RECIP            SELF            CORR

ENER_0:        0       4330.2378      15384.4359          0.0000      -5669.6142       -363.8728      -5020.7111      -2152.8811      46806.1878   -1347030.3458    1297356.3281

###############################################################################
############################# STARTING SIMULATION #############################

MTITLE:     STEP          DISTRY       DISACCEPT      DISACCEPT%          DISMAX          ROTATE       ROTACCEPT      ROTACCEPT%          ROTMAX       INTRASWAP       INTACCEPT      INTACCEPT%

ETITLE:     STEP           TOTAL        INTRA(B)       INTRA(NB)       INTER(LJ)             LRC     TOTAL_ELECT            REAL           RECIP            SELF            CORR

STITLE:     STEP        PRESSURE        TOTALMOL     TOT_DENSITY

Printed combined psf to file DME_290_00_K_merged.psf
MOVE_0:   100000           49864           30505         61.1764         35.0800           30101           24678         81.9840          3.1416           20035           13349         66.6284

ENER_0:   100000       8031.7803      19790.2652          0.0000      -6037.0165       -363.8728      -5357.5956      -2490.4096      46889.1552   -1347030.3458    1297274.0045

STAT_0:   100000         16.8530             100         22.1507

PRES_0:   100000         -2.2785         13.2322          2.0991

Steps/sec. : 1002.2008
MOVE_0:   200000           99989           61257         61.2637         35.0800           60128           49111         81.6774          3.1416           39883           26427         66.2613

ENER_0:   200000       6389.9138      20680.0875          0.0000      -8607.9197       -363.8728      -5318.3812      -2399.1242      46056.6912   -1347030.3458    1298054.3976

STAT_0:   200000          9.0545             100         22.1507

PRES_0:   200000         -4.0797         -1.3349         -4.9281

Steps/sec. : 1020.7647
MOVE_0:   300000          149937           92228         61.5112         35.0800           90083           73576         81.6758          3.1416           59980           39662         66.1254

ENER_0:   300000       5778.8208      16423.5368          0.0000      -5806.6511       -363.8728      -4474.1921      -2082.2850      46576.2208   -1347030.3458    1298062.2178

STAT_0:   300000         14.9346             100         22.1507

PRES_0:   300000          5.3836         -0.5990          2.5131

Steps/sec. : 794.3999
MOVE_0:   400000          199896          122965         61.5145         35.0800          120053           97988         81.6206          3.1416           80051           52963         66.1616

ENER_0:   400000        240.3958      15261.8328          0.0000      -8791.9700       -363.8728      -5865.5941      -2431.9959      46130.8109   -1347030.3458    1297465.9367

STAT_0:   400000         10.7335             100         22.1507

PRES_0:   400000         -1.9079         -2.4679         -0.9298

Steps/sec. : 1050.3124
MOVE_0:   500000          249814          153644         61.5034         35.0800          150058          122273         81.4838          3.1416          100128           66251         66.1663

ENER_0:   500000       5413.6309      18945.0764          0.0000      -7853.8625       -363.8728      -5313.7102      -1987.9787      46057.4773   -1347030.3458    1297647.1369

STAT_0:   500000         10.1771             100         22.1507

PRES_0:   500000         -3.7861         -0.9737         -2.2152

Steps/sec. : 786.0673
MOVE_0:   600000          299923          184343         61.4634         35.0800          180186          146655         81.3909          3.1416          119891           79164         66.0300

ENER_0:   600000       -567.3651      13284.1153          0.0000      -9462.8653       -363.8728      -4024.7422      -1958.7426      47173.7963   -1347030.3458    1297790.5499

STAT_0:   600000          9.6181             100         22.1507

PRES_0:   600000         -1.7854         -3.0813         -3.7851

Steps/sec. : 799.5251
MOVE_0:   700000          350020          215356         61.5268         35.0800          210093          171041         81.4120          3.1416          139887           92453         66.0912

ENER_0:   700000        716.1609      15782.3626          0.0000      -9873.0342       -363.8728      -4829.2947      -2428.5515      47455.9185   -1347030.3458    1297173.6841

STAT_0:   700000         10.1816             100         22.1507

PRES_0:   700000         -5.4215          0.7101         -2.2500

Steps/sec. : 801.9121
MOVE_0:   800000          399749          245760         61.4786         35.0800          240162          195439         81.3780          3.1416          160089          105903         66.1526

ENER_0:   800000       2804.3363      14600.8195          0.0000      -6474.8438       -363.8728      -4957.7666      -1622.0826      46088.8079   -1347030.3458    1297605.8539

STAT_0:   800000         14.2203             100         22.1507

PRES_0:   800000          3.2719         -2.9778          4.8605

Steps/sec. : 805.5225
MOVE_0:   900000          449631          276155         61.4181         35.0800          270273          219843         81.3411          3.1416          180096          118979         66.0642

ENER_0:   900000      -1779.9261      12963.9801          0.0000      -9522.4845       -363.8728      -4857.5489      -2467.1334      47282.5690   -1347030.3458    1297357.3612

STAT_0:   900000         10.7781             100         22.1507

PRES_0:   900000          2.3244         -2.7417         -4.7545

Steps/sec. : 815.9601
MOVE_0:  1000000          499530          306599         61.3775         35.0800          300440          244210         81.2841          3.1416          200030          132023         66.0016

ENER_0:  1000000       3185.5802      14273.8898          0.0000      -6162.9857       -363.8728      -4561.4511      -1590.4568      46464.4882   -1347030.3458    1297594.8633

STAT_0:  1000000         13.8168             100         22.1507

PRES_0:  1000000          0.7122         -0.6486          3.8807

Simulation Time (total): 1164.9881sec.
GOMC Serial Version 2.0
Completed at: Mon Apr 24 19:47:04 2017
On hostname: potoff13.eng.wayne.edu
