GOMC Serial Version 1.9
Started at: Fri Dec  9 11:18:38 2016
On hostname: potoff39.eng.wayne.edu

Total number of CPUs: 4
Total number of CPUs available: 4
Model name: Intel(R) Core(TM) i5-2500K CPU @ 3.30GHz

System name: Linux
Release: 2.6.32-642.4.2.el6.x86_64
Version: #1 SMP Tue Aug 23 19:58:13 UTC 2016
Kernel Architecture: x86_64
Total Ram: 7856.3MB
Used Ram: 5542.2MB
Working in the current directory /home3/soroush/Desktop/validation/GOMC_Serial-development_1.90/GOMC_Examples-master/NVT/dpc_dryMartini

------------------------------------------------------
This code was compiled to support the canonical (NVT) ensemble.
------------------------------------------------------

REMINDER: MARTINI force field has been selected!
Temperature of system has been set to 310.0 K 
Warning: Unknown input HistogramFreq!
Warning: Ewald method would not be used to calculate electrostatic energy!
Warning: Long Range Correction will be disabled for shift and switch potential!
Reading from CHARMM-Style Parameter File file: ./../../common/Par_Dry_Martini_Charmm.inp

Finished reading CHARMM-Style Parameter File file: ./../../common/Par_Dry_Martini_Charmm.inp

Reading from system PDB coordinate file file: ./STEP3_START_DPC_AC4_sys_BOX_0.pdb

Finished reading system PDB coordinate file file: ./STEP3_START_DPC_AC4_sys_BOX_0.pdb

Random number seed: 728464345

Molecules in PSF:

Molecule Kind: DPC
Idx	name	type	charge	mass
0	NC3	Q0	1.0	72.0
1	PO4	QA	-1.0	72.0
2	C1A	C1	0.0	72.0
3	C2A	C1	0.0	72.0
4	C3A	C1	0.0	72.0

Bonds:
[0 1] [1 2] [2 3] [3 4] 

Angles:
[0 1 2] [1 2 3] [2 3 4] 

Dihedrals:
[0 1 2 3] [1 2 3 4] 

REMINDER! 1-3 Interaction and more is ON for Martini forcefield


########################## INITIAL SIMULATION ENERGY ##########################
ETITLE_BOX_0    TOTAL           INTRA(B)        INTRA(N)        INTER(LJ)       LRC             TOTAL_ELECT     REAL            RECIP           SELF            CORR            

ENERGY_BOX_0    412289131.7267  30865.6238      -15896.8279     412274103.5289  0.0000          59.4019         59.4019         0.0000          0.0000          -0.0000         

###############################################################################

############################# STARTING SIMULATION #############################
MTITLE_BOX_0    DISTRY          DISACCEPT       DISACCEPT%      DISMAX          ROTATE          ROTACCEPT       ROTACCEPT%      ROTMAX          INTRASWAP       INTACCEPT       INTACCEPT%      STEP            

ETITLE_BOX_0    TOTAL           INTRA(B)        INTRA(N)        INTER(LJ)       LRC             TOTAL_ELECT     REAL            RECIP           SELF            CORR            
STITLE_BOX_0    PRESSURE        TOTALMOL        TOT_DENSITY     

Printed combined psf to file DPC_310_K.psf
MOVE_BOX_0      39769           19476           48.9728         0.3297          29992           14791           49.3165         0.1445          30239           392             1.2963          100000          

ENERGY_BOX_0    -245434.6572    8724.6399       -13577.6917     -239449.2655    0.0000          -1132.3400      -1132.3400      0.0000          0.0000          0.0000          

STAT_BOX_0      -13.6860        54              45.7905         

Steps/sec. : 4787.3009
MOVE_BOX_0      79836           39559           49.5503         0.3195          60162           29901           49.7008         0.1416          60002           412             0.6866          200000          

ENERGY_BOX_0    -270048.5456    7580.7543       -13643.1609     -262028.5115    0.0000          -1957.6275      -1957.6275      0.0000          0.0000          0.0000          

STAT_BOX_0      8.3818          54              45.7905         

Steps/sec. : 4738.3197
MOVE_BOX_0      119647          59475           49.7087         0.2832          90473           45082           49.8292         0.1249          89880           430             0.4784          300000          

ENERGY_BOX_0    -263011.5331    7238.2231       -13252.2328     -256576.1183    0.0000          -421.4052       -421.4052       0.0000          0.0000          0.0000          

STAT_BOX_0      4.6295          54              45.7905         

Steps/sec. : 4590.2047
MOVE_BOX_0      159645          79533           49.8187         0.2760          120745          60265           49.9110         0.1337          119610          472             0.3946          400000          

ENERGY_BOX_0    -280494.2334    4963.9854       -13607.7832     -271991.9084    0.0000          141.4729        141.4729        0.0000          0.0000          0.0000          

STAT_BOX_0      2.3019          54              45.7905         

Steps/sec. : 4543.5138
MOVE_BOX_0      199770          99649           49.8819         0.2792          150764          75313           49.9542         0.1306          149466          515             0.3446          500000          

ENERGY_BOX_0    -290598.9866    5392.0340       -13909.5056     -279315.9435    0.0000          -2765.5714      -2765.5714      0.0000          0.0000          0.0000          

STAT_BOX_0      5.8362          54              45.7905         

Steps/sec. : 4394.6496
MOVE_BOX_0      239782          119714          49.9262         0.2875          180656          90290           49.9790         0.1298          179562          518             0.2885          600000          

ENERGY_BOX_0    -295859.3750    4089.7912       -13386.5265     -284224.0452    0.0000          -2338.5944      -2338.5944      0.0000          0.0000          0.0000          

STAT_BOX_0      5.7975          54              45.7905         

Steps/sec. : 4329.1381
MOVE_BOX_0      279556          139627          49.9460         0.2772          210646          105316          49.9967         0.1275          209798          524             0.2498          700000          

ENERGY_BOX_0    -296511.1252    4123.0292       -13393.2742     -284661.6600    0.0000          -2579.2202      -2579.2202      0.0000          0.0000          0.0000          

STAT_BOX_0      -6.5424         54              45.7905         

Steps/sec. : 4322.2573
MOVE_BOX_0      319649          159711          49.9645         0.2801          240789          120408          50.0056         0.1216          239562          571             0.2384          800000          

ENERGY_BOX_0    -308458.5550    4027.4698       -13042.7314     -296992.4496    0.0000          -2450.8437      -2450.8437      0.0000          0.0000          0.0000          

STAT_BOX_0      3.0441          54              45.7905         

Steps/sec. : 4363.0828
MOVE_BOX_0      359299          179572          49.9784         0.2800          271052          135578          50.0192         0.1255          269649          571             0.2118          900000          

ENERGY_BOX_0    -314434.6323    4027.4698       -13042.7314     -302712.0227    0.0000          -2707.3480      -2707.3480      0.0000          0.0000          0.0000          

STAT_BOX_0      -4.3505         54              45.7905         

Steps/sec. : 4326.6790
MOVE_BOX_0      399041          199483          49.9906         0.2718          301014          150582          50.0249         0.1254          299945          573             0.1910          1000000         

ENERGY_BOX_0    -307468.4918    4049.9559       -13379.6021     -293630.1159    0.0000          -4508.7297      -4508.7297      0.0000          0.0000          0.0000          

STAT_BOX_0      -7.1824         54              45.7905         

Simulation Time (total): 224.0237sec.
GOMC Serial Version 1.9
Completed at: Fri Dec  9 11:22:22 2016
On hostname: potoff39.eng.wayne.edu
