GOMC Serial Version 2.0
Started at: Sat Apr 22 18:04:01 2017
On hostname: potoff39.eng.wayne.edu

Total number of CPUs: 4
Total number of CPUs available: 4
Model name: Intel(R) Core(TM) i5-2500K CPU @ 3.30GHz

System name: Linux
Release: 2.6.32-642.4.2.el6.x86_64
Version: #1 SMP Tue Aug 23 19:58:13 UTC 2016
Kernel Architecture: x86_64
Total Ram: 7856.3MB
Used Ram: 5825.1MB
Working in the current directory /home3/soroush/Desktop/validation/GOMC_Examples/NVT/dpc_dryMartini

------------------------------------------------------
This code was compiled to support the canonical (NVT) ensemble.
------------------------------------------------------

REMINDER: MARTINI force field has been selected!
Temperature of system has been set to 310.00000 K 
Switch method will be used to truncate the VDW interaction.
Note: Pressure will be calculated every 1000 steps.
Warning: Unknown input HistogramFreq!
Warning: Ewald method would not be used to calculate electrostatic energy!
Warning: Long Range Correction will be disabled for shift and switch potential!
Reading from CHARMM-Style Parameter File file: ./../../common/Par_Dry_Martini_Charmm.inp
Finished reading CHARMM-Style Parameter File file: ./../../common/Par_Dry_Martini_Charmm.inp
Reading from system PDB coordinate file file: ./STEP3_START_DPC_AC4_sys_BOX_0.pdb
Finished reading system PDB coordinate file file: ./STEP3_START_DPC_AC4_sys_BOX_0.pdb
Random number seed: 4278352248

Molecules in PSF:
Molecule Kind: DPC
Idx	name	type	charge	mass
0	NC3	Q0	1.0000	72.0000
1	PO4	QA	-1.0000	72.0000
2	C1A	C1	0.0000	72.0000
3	C2A	C1	0.0000	72.0000
4	C3A	C1	0.0000	72.0000
Bonds:
[0 1] [1 2] [2 3] [3 4] 
Angles:
[0 1 2] [1 2 3] [2 3 4] 
Dihedrals:
[0 1 2 3] [1 2 3 4] 

REMINDER! 1-3 Interaction and more is ON for Martini forcefield
Minimum coordinates in box 0: x =    4.195, y =    1.287, z =    2.048
Maximum coordinates in box 0: x =   84.511, y =   85.173, z =   82.175

###############################################################################
########################## INITIAL SIMULATION ENERGY ##########################

ETITLE:     STEP           TOTAL        INTRA(B)       INTRA(NB)       INTER(LJ)             LRC     TOTAL_ELECT            REAL           RECIP            SELF            CORR

ENER_0:        0  412289131.7267      30865.6238     -15896.8279  412274103.5289          0.0000         59.4019         59.4019          0.0000          0.0000         -0.0000

###############################################################################
############################# STARTING SIMULATION #############################

MTITLE:     STEP          DISTRY       DISACCEPT      DISACCEPT%          DISMAX          ROTATE       ROTACCEPT      ROTACCEPT%          ROTMAX       INTRASWAP       INTACCEPT      INTACCEPT%

ETITLE:     STEP           TOTAL        INTRA(B)       INTRA(NB)       INTER(LJ)             LRC     TOTAL_ELECT            REAL           RECIP            SELF            CORR

STITLE:     STEP        PRESSURE        TOTALMOL     TOT_DENSITY

Printed combined psf to file DPC_310_K_merged.psf
MOVE_0:   100000           40067           19589         48.8906          0.3395           29812           14703         49.3191          0.1449           30121             534          1.7728

ENER_0:   100000    -244395.5985      10319.8963     -16929.9397    -234132.0268          0.0000      -3653.5282      -3653.5282          0.0000          0.0000          0.0000

STAT_0:   100000         -1.8533              54         45.7905

PRES_0:   100000         10.0446        -15.5403         -9.8997

Steps/sec. : 2485.1730
MOVE_0:   200000           80245           39715         49.4922          0.3397           59474           29563         49.7074          0.1431           60281             604          1.0020

ENER_0:   200000    -254064.3075      11323.9399     -16330.8955    -245894.9869          0.0000      -3162.3650      -3162.3650          0.0000          0.0000          0.0000

STAT_0:   200000         -4.7269              54         45.7905

PRES_0:   200000        -21.1357         -7.3549          4.4746

Steps/sec. : 2384.4041
MOVE_0:   300000          120023           59630         49.6821          0.3203           89680           44700         49.8439          0.1400           90297             704          0.7796

ENER_0:   300000    -277791.1743       9689.5665     -16295.2351    -268058.0536          0.0000      -3127.4520      -3127.4520          0.0000          0.0000          0.0000

STAT_0:   300000         -2.6612              54         45.7905

PRES_0:   300000         -1.1854         -4.2350        -12.3987

Steps/sec. : 2444.3489
MOVE_0:   400000          160011           79654         49.7803          0.2849          119659           59700         49.8918          0.1159          120330             706          0.5867

ENER_0:   400000    -281229.4056       9040.2665     -16140.1315    -270617.7951          0.0000      -3511.7454      -3511.7454          0.0000          0.0000          0.0000

STAT_0:   400000          3.5162              54         45.7905

PRES_0:   400000         16.4654         -2.9203        -12.8317

Steps/sec. : 2390.2439
MOVE_0:   500000          200041           99705         49.8423          0.2635          149588           74699         49.9365          0.1202          150371             707          0.4702

ENER_0:   500000    -288844.9570       8981.5216     -16190.3203    -278304.5619          0.0000      -3331.5963      -3331.5963          0.0000          0.0000          0.0000

STAT_0:   500000         -9.5254              54         45.7905

PRES_0:   500000          1.2726        -20.9765        -18.7078

Steps/sec. : 2380.8994
MOVE_0:   600000          239770          119639         49.8974          0.2901          179675           89827         49.9942          0.1583          180555             852          0.4719

ENER_0:   600000    -284200.8687       9196.0465     -16084.5684    -271680.5189          0.0000      -5631.8279      -5631.8279          0.0000          0.0000          0.0000

STAT_0:   600000         -0.6400              54         45.7905

PRES_0:   600000         13.1895        -24.8552         -0.0896

Steps/sec. : 2358.8142
MOVE_0:   700000          279592          139598         49.9292          0.2967          209512          104753         49.9986          0.1251          210896             907          0.4301

ENER_0:   700000    -297422.6444       8864.2164     -15312.9678    -286204.0418          0.0000      -4769.8511      -4769.8511          0.0000          0.0000          0.0000

STAT_0:   700000         14.7702              54         45.7905

PRES_0:   700000         23.9019        -10.4105         20.9838

Steps/sec. : 2351.7476
MOVE_0:   800000          319473          159561         49.9451          0.2684          239478          119771         50.0134          0.1179          241049             911          0.3779

ENER_0:   800000    -305377.2721       8871.1514     -15287.2668    -294045.5754          0.0000      -4915.5812      -4915.5812          0.0000          0.0000          0.0000

STAT_0:   800000          1.2952              54         45.7905

PRES_0:   800000          2.7197        -14.1959          5.5263

Steps/sec. : 2360.0728
MOVE_0:   900000          359495          179595         49.9576          0.2604          269388          134768         50.0275          0.1243          271117             914          0.3371

ENER_0:   900000    -295678.5987       9165.1497     -15288.4898    -284141.9587          0.0000      -5413.2999      -5413.2999          0.0000          0.0000          0.0000

STAT_0:   900000          0.4092              54         45.7905

PRES_0:   900000        -11.9972          4.2328         -0.8434

Steps/sec. : 2380.3084
MOVE_0:  1000000          399816          199813         49.9762          0.2554          299245          149731         50.0363          0.1205          300939             922          0.3064

ENER_0:  1000000    -291764.0299       9280.4396     -15466.1865    -280245.1365          0.0000      -5333.1465      -5333.1465          0.0000          0.0000          0.0000

STAT_0:  1000000         -7.1409              54         45.7905

PRES_0:  1000000         -9.9318         -8.3736        -12.9525

Simulation Time (total): 417.6941sec.
GOMC Serial Version 2.0
Completed at: Sat Apr 22 18:10:59 2017
On hostname: potoff39.eng.wayne.edu
