GOMC Serial Version 1.9
Started at: Sat Apr 22 18:05:15 2017
On hostname: potoff39.eng.wayne.edu

Total number of CPUs: 4
Total number of CPUs available: 4
Model name: Intel(R) Core(TM) i5-2500K CPU @ 3.30GHz

System name: Linux
Release: 2.6.32-642.4.2.el6.x86_64
Version: #1 SMP Tue Aug 23 19:58:13 UTC 2016
Kernel Architecture: x86_64
Total Ram: 7856.3MB
Used Ram: 5825.8MB
Working in the current directory /home3/soroush/Desktop/validation/GOMC_Examples/NVT/neon_T_34_00_K

------------------------------------------------------
This code was compiled to support the canonical (NVT) ensemble.
------------------------------------------------------

REMINDER: EXOTIC force field has been selected!
Temperature of system has been set to 34.00000 K 
Note: Pressure will be calculated every 1000 steps.
By default intra box swap frequency has been set to zero
Warning: Electrostatic energy would not be calculated!
Reading from Exotic Parameter File file: ./../../common/Par_Vrabec01_Noble_Gases_Exotic.inp
Finished reading Exotic Parameter File file: ./../../common/Par_Vrabec01_Noble_Gases_Exotic.inp
Reading from system PDB coordinate file file: ./STEP3_START_NE_sys_BOX_0.pdb
Finished reading system PDB coordinate file file: ./STEP3_START_NE_sys_BOX_0.pdb
Random number seed: 96449

Molecules in PSF:
Molecule Kind: NE
Idx	name	type	charge	mass
0	NE	NE	0.0000	20.1800
Bonds:
Angles:
Dihedrals:

REMINDER! 1-3 and 1-4 Interaction is OFF
Minimum coordinates in box 0: x =    1.013, y =    1.093, z =    1.111
Maximum coordinates in box 0: x =   87.968, y =   87.978, z =   87.983

###############################################################################
########################## INITIAL SIMULATION ENERGY ##########################

ETITLE:     STEP           TOTAL        INTRA(B)       INTRA(NB)       INTER(LJ)             LRC     TOTAL_ELECT            REAL           RECIP            SELF            CORR

ENER_0:        0      10558.5265          0.0000          0.0000      10745.5170       -186.9906          0.0000          0.0000          0.0000          0.0000         -0.0000

###############################################################################
############################# STARTING SIMULATION #############################

MTITLE:     STEP          DISTRY       DISACCEPT      DISACCEPT%          DISMAX          ROTATE       ROTACCEPT      ROTACCEPT%          ROTMAX       INTRASWAP       INTACCEPT      INTACCEPT%

ETITLE:     STEP           TOTAL        INTRA(B)       INTRA(NB)       INTER(LJ)             LRC     TOTAL_ELECT            REAL           RECIP            SELF            CORR

STITLE:     STEP        PRESSURE        TOTALMOL     TOT_DENSITY

Printed combined psf to file neon_34_00_K_merged.psf
MOVE_0:   100000          100000           67306         67.3060         45.0985               0               0          0.0000          0.7854               0               0          0.0000

ENER_0:   100000      -9021.2253          0.0000          0.0000      -8834.2347       -186.9906          0.0000          0.0000          0.0000          0.0000         -0.0000

STAT_0:   100000          5.9695            1000         45.6661

PRES_0:   100000         -0.8565         -0.0903         -0.1251

Steps/sec. : 94170.1158
MOVE_0:   200000          200000          135334         67.6670         45.0985               0               0          0.0000          0.7854               0               0          0.0000

ENER_0:   200000      -9512.8478          0.0000          0.0000      -9325.8572       -186.9906          0.0000          0.0000          0.0000          0.0000         -0.0000

STAT_0:   200000          5.1571            1000         45.6661

PRES_0:   200000         -1.4702         -1.1557         -0.8833

Steps/sec. : 168352.4372
MOVE_0:   300000          300000          203607         67.8690         45.0985               0               0          0.0000          0.7854               0               0          0.0000

ENER_0:   300000      -8515.5931          0.0000          0.0000      -8328.6025       -186.9906          0.0000          0.0000          0.0000          0.0000         -0.0000

STAT_0:   300000          5.5458            1000         45.6661

PRES_0:   300000         -0.4349         -0.9267         -0.9814

Steps/sec. : 138413.1296
MOVE_0:   400000          400000          271668         67.9170         45.0985               0               0          0.0000          0.7854               0               0          0.0000

ENER_0:   400000      -9951.2918          0.0000          0.0000      -9764.3012       -186.9906          0.0000          0.0000          0.0000          0.0000         -0.0000

STAT_0:   400000          4.8997            1000         45.6661

PRES_0:   400000         -1.3527         -1.3122         -1.6164

Steps/sec. : 136315.5479
MOVE_0:   500000          500000          339315         67.8630         45.0985               0               0          0.0000          0.7854               0               0          0.0000

ENER_0:   500000      -8925.8507          0.0000          0.0000      -8738.8601       -186.9906          0.0000          0.0000          0.0000          0.0000         -0.0000

STAT_0:   500000          5.5907            1000         45.6661

PRES_0:   500000         -0.8762         -0.7298         -0.6023

Steps/sec. : 146449.7756
MOVE_0:   600000          600000          407059         67.8432         45.0985               0               0          0.0000          0.7854               0               0          0.0000

ENER_0:   600000      -9923.2375          0.0000          0.0000      -9736.2469       -186.9906          0.0000          0.0000          0.0000          0.0000         -0.0000

STAT_0:   600000          5.0457            1000         45.6661

PRES_0:   600000         -1.2558         -1.3156         -1.2720

Steps/sec. : 164183.3741
MOVE_0:   700000          700000          475264         67.8949         45.0985               0               0          0.0000          0.7854               0               0          0.0000

ENER_0:   700000     -10128.1340          0.0000          0.0000      -9941.1434       -186.9906          0.0000          0.0000          0.0000          0.0000         -0.0000

STAT_0:   700000          5.2997            1000         45.6661

PRES_0:   700000         -0.6866         -1.2445         -1.1501

Steps/sec. : 198979.6509
MOVE_0:   800000          800000          542891         67.8614         45.0985               0               0          0.0000          0.7854               0               0          0.0000

ENER_0:   800000      -8911.5319          0.0000          0.0000      -8724.5414       -186.9906          0.0000          0.0000          0.0000          0.0000         -0.0000

STAT_0:   800000          5.5162            1000         45.6661

PRES_0:   800000         -0.6724         -0.7804         -0.9789

Steps/sec. : 198904.4451
MOVE_0:   900000          900000          610926         67.8807         45.0985               0               0          0.0000          0.7854               0               0          0.0000

ENER_0:   900000      -9698.5368          0.0000          0.0000      -9511.5463       -186.9906          0.0000          0.0000          0.0000          0.0000         -0.0000

STAT_0:   900000          5.3621            1000         45.6661

PRES_0:   900000         -0.9666         -1.0931         -0.8344

Steps/sec. : 200374.2532
MOVE_0:  1000000         1000000          678501         67.8501         45.0985               0               0          0.0000          0.7854               0               0          0.0000

ENER_0:  1000000     -10018.1736          0.0000          0.0000      -9831.1830       -186.9906          0.0000          0.0000          0.0000          0.0000         -0.0000

STAT_0:  1000000          5.3795            1000         45.6661

PRES_0:  1000000         -0.7888         -0.8548         -1.1983

Simulation Time (total): 6.4662sec.
GOMC Serial Version 1.9
Completed at: Sat Apr 22 18:05:21 2017
On hostname: potoff39.eng.wayne.edu
