GOMC Serial Version 1.9
Started at: Fri Dec  9 12:34:21 2016
On hostname: potoff39.eng.wayne.edu

Total number of CPUs: 4
Total number of CPUs available: 4
Model name: Intel(R) Core(TM) i5-2500K CPU @ 3.30GHz

System name: Linux
Release: 2.6.32-642.4.2.el6.x86_64
Version: #1 SMP Tue Aug 23 19:58:13 UTC 2016
Kernel Architecture: x86_64
Total Ram: 7856.3MB
Used Ram: 5520.7MB
Working in the current directory /home3/soroush/Desktop/validation/GOMC_Serial-development_1.90/GOMC_Examples-master/NVT_GEMC/pure_fluid/2_2_dimethylpentane_T_420_00_K

------------------------------------------------------
This code was compiled to support the Gibbs ensemble.
------------------------------------------------------

REMINDER: CHARMM force field has been selected!
NVT_GEMC simulation has been selected 
Temperature of system has been set to 420.0 K 
By default intra box swap frequency has been set to zero
Warning: Electrostatic energy would not be calculated!
Reading from CHARMM-Style Parameter File file: ./../../../common/Par_TraPPE_Alkanes_CHARMM.inp

Finished reading CHARMM-Style Parameter File file: ./../../../common/Par_TraPPE_Alkanes_CHARMM.inp

Reading from Box 1 PDB coordinate file file: ./STEP3_START_DP1_sys_BOX_0.pdb

Finished reading Box 1 PDB coordinate file file: ./STEP3_START_DP1_sys_BOX_0.pdb

Reading from Box 2 PDB coordinate file file: ./STEP3_START_DP1_sys_BOX_1.pdb

Finished reading Box 2 PDB coordinate file file: ./STEP3_START_DP1_sys_BOX_1.pdb

Random number seed: 2451628985

Molecules in PSF:

Molecule Kind: DP1
Idx	name	type	charge	mass
0	C1	CT	0.0	12.0
1	C2	CH3	0.0	15.0
2	C3	CH3	0.0	15.0
3	C4	CH3	0.0	15.0
4	C5	CH2	0.0	14.0
5	C6	CH2	0.0	14.0
6	C7	CH3	0.0	15.0

Bonds:
[0 1] [0 2] [0 3] [0 4] [4 5] [5 6] 

Angles:
[0 4 5] [1 0 4] [1 0 3] [1 0 2] [2 0 4] [2 0 3] [3 0 4] [4 5 6] 

Dihedrals:
[0 4 5 6] [1 0 4 5] [2 0 4 5] [3 0 4 5] 

REMINDER! 1-3 and 1-4 Interaction is OFF


########################## INITIAL SIMULATION ENERGY ##########################
ETITLE_BOX_0    TOTAL           INTRA(B)        INTRA(N)        INTER(LJ)       LRC             TOTAL_ELECT     REAL            RECIP           SELF            CORR            

ENERGY_BOX_0    14997099.7021   193088.5611     -122491.8698    14962505.0163   -36002.0054     0.0000          0.0000          0.0000          0.0000          -0.0000         

ETITLE_BOX_1    TOTAL           INTRA(B)        INTRA(N)        INTER(LJ)       LRC             TOTAL_ELECT     REAL            RECIP           SELF            CORR            

ENERGY_BOX_1    4249320.5562    193087.2249     -122489.2584    4188893.0102    -10170.4205     0.0000          0.0000          0.0000          0.0000          -0.0000         

###############################################################################

############################# STARTING SIMULATION #############################
MTITLE_BOX_0    DISTRY          DISACCEPT       DISACCEPT%      DISMAX          ROTATE          ROTACCEPT       ROTACCEPT%      ROTMAX          INTRASWAP       INTACCEPT       INTACCEPT%      TRANSFER        TRANACCEPT      TRANACCEPT%     VOLUME          VOLACCEPT       VOLACCEPT%      VOLMAX          STEP            

ETITLE_BOX_0    TOTAL           INTRA(B)        INTRA(N)        INTER(LJ)       LRC             TOTAL_ELECT     REAL            RECIP           SELF            CORR            
STITLE_BOX_0    VOLUME          PRESSURE        TOTALMOL        TOT_DENSITY     

MTITLE_BOX_1    DISTRY          DISACCEPT       DISACCEPT%      DISMAX          ROTATE          ROTACCEPT       ROTACCEPT%      ROTMAX          INTRASWAP       INTACCEPT       INTACCEPT%      TRANSFER        TRANACCEPT      TRANACCEPT%     VOLUME          VOLACCEPT       VOLACCEPT%      VOLMAX          STEP            

ETITLE_BOX_1    TOTAL           INTRA(B)        INTRA(N)        INTER(LJ)       LRC             TOTAL_ELECT     REAL            RECIP           SELF            CORR            
STITLE_BOX_1    VOLUME          PRESSURE        TOTALMOL        TOT_DENSITY     

Printed combined psf to file 2_2_dimethylpentane_360_00_K.psf
MOVE_BOX_0      34447           16891           49.0347         1.4734          5073            3093            60.9698         3.1416          0               0               0.0000          9862            1756            17.8057         992             548             55.2419         13343.2337      100000          

ENERGY_BOX_0    363993.2771     688088.1385     -78380.2877     -227892.8128    -17821.7609     0.0000          0.0000          0.0000          0.0000          0.0000          

STAT_BOX_0      599784.0982     13.8355         359             99.5951         

MOVE_BOX_1      34487           16984           49.2475         4.5232          5016            3895            77.6515         3.1416          0               0               0.0000          10123           1615            15.9538         0               0               0.0000          500.0000        100000          

ENERGY_BOX_1    801339.4963     1170224.7361    -144760.9077    -207211.1115    -16913.2207     0.0000          0.0000          0.0000          0.0000          0.0000          

STAT_BOX_1      2014867.1018    12.8470         641             52.9359         

Steps/sec. : 3935.6160
MOVE_BOX_0      68707           34218           49.8028         3.9213          10026           6482            64.6519         3.1416          0               0               0.0000          19843           3643            18.3591         2005            1096            54.6633         32064.7160      200000          

ENERGY_BOX_0    478930.8050     684875.1442     -72940.6578     -123574.3922    -9429.2892      0.0000          0.0000          0.0000          0.0000          0.0000          

STAT_BOX_0      1034822.6996    11.7254         343             55.1527         

MOVE_BOX_1      69223           34294           49.5413         2.6694          10043           7564            75.3161         3.1416          0               0               0.0000          20153           3486            17.2977         0               0               0.0000          500.0000        200000          

ENERGY_BOX_1    793839.8273     1260991.2943    -147189.7638    -297300.7874    -22660.9158     0.0000          0.0000          0.0000          0.0000          0.0000          

STAT_BOX_1      1579828.5004    14.7407         657             69.1981         

Steps/sec. : 3885.7365
MOVE_BOX_0      103290          51519           49.8780         3.2341          15008           10051           66.9709         3.1416          0               0               0.0000          29870           5520            18.4801         3023            1649            54.5485         35641.4172      300000          

ENERGY_BOX_0    490008.8432     729077.8478     -78336.6619     -148928.4146    -11803.9280     0.0000          0.0000          0.0000          0.0000          0.0000          

STAT_BOX_0      900525.8061     16.3858         358             66.1493         

MOVE_BOX_1      103723          51624           49.7710         3.3404          14942           11050           73.9526         3.1416          0               0               0.0000          30144           5378            17.8410         0               0               0.0000          500.0000        300000          

ENERGY_BOX_1    826704.7003     1259086.1769    -142978.7084    -269460.0603    -19942.7080     0.0000          0.0000          0.0000          0.0000          0.0000          

STAT_BOX_1      1714125.3939    11.3785         642             62.3205         

Steps/sec. : 3662.7072
MOVE_BOX_0      137644          68718           49.9244         3.1355          20105           13789           68.5849         3.1416          0               0               0.0000          39954           7489            18.7441         3993            2160            54.0947         15402.6413      400000          

ENERGY_BOX_0    549325.6490     821768.5875     -91240.3450     -166832.6990    -14369.8946     0.0000          0.0000          0.0000          0.0000          0.0000          

STAT_BOX_0      998825.7728     22.3872         416             69.3014         

MOVE_BOX_1      138235          68899           49.8419         3.1030          19946           14635           73.3731         3.1416          0               0               0.0000          40123           7405            18.4557         0               0               0.0000          500.0000        400000          

ENERGY_BOX_1    783641.5755     1143093.0637    -122934.7974    -219010.6506    -17506.0401     0.0000          0.0000          0.0000          0.0000          0.0000          

STAT_BOX_1      1615825.4272    14.6146         584             60.1391         

Steps/sec. : 4074.7508
MOVE_BOX_0      172439          86118           49.9411         2.5822          25073           17371           69.2817         3.1416          0               0               0.0000          49914           9456            18.9446         5014            2723            54.3079         44799.6787      500000          

ENERGY_BOX_0    508557.3157     748977.5717     -82965.0741     -145896.1374    -11559.0445     0.0000          0.0000          0.0000          0.0000          0.0000          

STAT_BOX_0      1036100.5915    17.2062         380             61.0267         

MOVE_BOX_1      172618          86104           49.8812         2.7143          24943           18222           73.0546         3.1416          0               0               0.0000          49999           9336            18.6724         0               0               0.0000          500.0000        500000          

ENERGY_BOX_1    815489.4942     1241717.4271    -135833.7882    -270197.3928    -20196.7520     0.0000          0.0000          0.0000          0.0000          0.0000          

STAT_BOX_1      1578550.6085    15.2779         620             65.3539         

Steps/sec. : 3991.2239
MOVE_BOX_0      207005          103478          49.9882         2.9382          30114           21082           70.0073         3.1416          0               0               0.0000          59956           11492           19.1674         6017            3260            54.1798         22995.2595      600000          

ENERGY_BOX_0    471522.9109     731241.8795     -81212.0047     -166203.1390    -12303.8249     0.0000          0.0000          0.0000          0.0000          0.0000          

STAT_BOX_0      952998.4845     14.8120         376             65.6499         

MOVE_BOX_1      206873          103276          49.9224         3.0081          29943           21782           72.7449         3.1416          0               0               0.0000          60092           11368           18.9177         0               0               0.0000          500.0000        600000          

ENERGY_BOX_1    853952.0351     1252915.5016    -139539.8709    -239988.5492    -19435.0463     0.0000          0.0000          0.0000          0.0000          0.0000          

STAT_BOX_1      1661652.7155    13.0615         624             62.4860         

Steps/sec. : 3998.4648
MOVE_BOX_0      241536          120675          49.9615         1.6426          35093           24401           69.5324         3.1416          0               0               0.0000          69888           13353           19.1063         7039            3801            53.9991         20912.9715      700000          

ENERGY_BOX_0    480607.4566     834288.7768     -91110.2982     -243204.7823    -19366.2397     0.0000          0.0000          0.0000          0.0000          0.0000          

STAT_BOX_0      762669.2951     22.2883         422             92.0693         

MOVE_BOX_1      241283          120571          49.9708         4.0308          35030           25586           73.0403         3.1416          0               0               0.0000          70131           13275           18.9289         0               0               0.0000          500.0000        700000          

ENERGY_BOX_1    816878.9670     1156292.0753    -129658.8583    -194792.7341    -14961.5160     0.0000          0.0000          0.0000          0.0000          0.0000          

STAT_BOX_1      1851981.9049    9.6560          578             51.9314         

Steps/sec. : 3732.8728
MOVE_BOX_0      275984          137964          49.9899         2.0231          40172           27604           68.7145         3.1416          0               0               0.0000          79832           15228           19.0751         8052            4344            53.9493         16963.8753      800000          

ENERGY_BOX_0    454881.9141     781518.0435     -86754.8146     -223627.5573    -16253.7575     0.0000          0.0000          0.0000          0.0000          0.0000          

STAT_BOX_0      828729.8452     5.7271          403             80.9153         

MOVE_BOX_1      275875          137924          49.9951         4.5031          40034           29415           73.4750         3.1416          0               0               0.0000          80051           15131           18.9017         0               0               0.0000          500.0000        800000          

ENERGY_BOX_1    861100.1629     1192950.9252    -131647.4689    -183651.5786    -16551.7148     0.0000          0.0000          0.0000          0.0000          0.0000          

STAT_BOX_1      1785921.3548    17.0296         597             55.6225         

Steps/sec. : 3912.0482
MOVE_BOX_0      310456          155307          50.0254         3.0372          45253           31085           68.6916         3.1416          0               0               0.0000          89709           17113           19.0761         9047            4880            53.9405         26139.0277      900000          

ENERGY_BOX_0    489041.5194     740189.3129     -78319.2126     -159805.3694    -13023.2115     0.0000          0.0000          0.0000          0.0000          0.0000          

STAT_BOX_0      881301.3769     9.5141          372             70.2356         

MOVE_BOX_1      310361          155161          49.9937         3.5345          45130           33148           73.4500         3.1416          0               0               0.0000          90044           16985           18.8630         0               0               0.0000          500.0000        900000          

ENERGY_BOX_1    903600.1504     1308566.5492    -139727.3841    -246368.2399    -18870.7747     0.0000          0.0000          0.0000          0.0000          0.0000          

STAT_BOX_1      1733349.8231    11.8851         628             60.2854         

Steps/sec. : 3992.2080
MOVE_BOX_0      344873          172562          50.0364         3.1907          50350           34787           69.0904         3.1416          0               0               0.0000          99636           19050           19.1196         10082           5446            54.0171         26772.5425      1000000         

ENERGY_BOX_0    525870.8007     775478.2746     -83282.1180     -154246.3123    -12079.0436     0.0000          0.0000          0.0000          0.0000          0.0000          

STAT_BOX_0      1001961.0537    9.5344          382             63.4382         

MOVE_BOX_1      344783          172346          49.9868         2.4834          50213           36842           73.3714         3.1416          0               0               0.0000          100063          18932           18.9201         0               0               0.0000          500.0000        1000000         

ENERGY_BOX_1    800013.2566     1206615.8372    -138246.5790    -248714.1384    -19641.8631     0.0000          0.0000          0.0000          0.0000          0.0000          

STAT_BOX_1      1612690.1463    17.6344         618             63.7641         

Simulation Time (total): 255.3294sec.
GOMC Serial Version 1.9
Completed at: Fri Dec  9 12:38:36 2016
On hostname: potoff39.eng.wayne.edu
