GOMC Serial Version 1.9
Started at: Sat Apr 22 20:04:54 2017
On hostname: potoff39.eng.wayne.edu

Total number of CPUs: 4
Total number of CPUs available: 4
Model name: Intel(R) Core(TM) i5-2500K CPU @ 3.30GHz

System name: Linux
Release: 2.6.32-642.4.2.el6.x86_64
Version: #1 SMP Tue Aug 23 19:58:13 UTC 2016
Kernel Architecture: x86_64
Total Ram: 7856.3MB
Used Ram: 5351.6MB
Working in the current directory /home3/soroush/Desktop/validation/GOMC_Examples/NVT_GEMC/pure_fluid/2_2_dimethylpentane_T_420_00_K

------------------------------------------------------
This code was compiled to support the Gibbs ensemble.
------------------------------------------------------

REMINDER: CHARMM force field has been selected!
NVT_GEMC simulation has been selected 
Temperature of system has been set to 420.00000 K 
Note: Pressure will be calculated every 1000 steps.
By default intra box swap frequency has been set to zero
Warning: Electrostatic energy would not be calculated!
Reading from CHARMM-Style Parameter File file: ./../../../common/Par_TraPPE_Alkanes_CHARMM.inp
Finished reading CHARMM-Style Parameter File file: ./../../../common/Par_TraPPE_Alkanes_CHARMM.inp
Reading from Box 1 PDB coordinate file file: ./STEP3_START_DP1_sys_BOX_0.pdb
Finished reading Box 1 PDB coordinate file file: ./STEP3_START_DP1_sys_BOX_0.pdb
Reading from Box 2 PDB coordinate file file: ./STEP3_START_DP1_sys_BOX_1.pdb
Finished reading Box 2 PDB coordinate file file: ./STEP3_START_DP1_sys_BOX_1.pdb
Random number seed: 222454605

Molecules in PSF:
Molecule Kind: DP1
Idx	name	type	charge	mass
0	C1	CT	0.0000	12.0110
1	C2	CH3	0.0000	15.0350
2	C3	CH3	0.0000	15.0350
3	C4	CH3	0.0000	15.0350
4	C5	CH2	0.0000	14.0270
5	C6	CH2	0.0000	14.0270
6	C7	CH3	0.0000	15.0350
Bonds:
[0 1] [0 2] [0 3] [0 4] [4 5] [5 6] 
Angles:
[0 4 5] [1 0 4] [1 0 3] [1 0 2] [2 0 4] [2 0 3] [3 0 4] [4 5 6] 
Dihedrals:
[0 4 5 6] [1 0 4 5] [2 0 4 5] [3 0 4 5] 

REMINDER! 1-3 and 1-4 Interaction is OFF
Minimum coordinates in box 0: x =    0.020, y =    0.238, z =    0.085
Maximum coordinates in box 0: x =   80.985, y =   80.985, z =   80.926
Minimum coordinates in box 1: x =    0.312, y =    0.195, z =    0.234
Maximum coordinates in box 1: x =  124.623, y =  124.549, z =  124.869

###############################################################################
########################## INITIAL SIMULATION ENERGY ##########################

ETITLE:     STEP           TOTAL        INTRA(B)       INTRA(NB)       INTER(LJ)             LRC     TOTAL_ELECT            REAL           RECIP            SELF            CORR

ENER_0:        0   14997099.7021     193088.5611    -122491.8698   14962505.0163     -36002.0054          0.0000          0.0000          0.0000          0.0000         -0.0000

ENER_1:        0    4249320.5562     193087.2249    -122489.2584    4188893.0102     -10170.4205          0.0000          0.0000          0.0000          0.0000         -0.0000

###############################################################################
############################# STARTING SIMULATION #############################

MTITLE:     STEP          DISTRY       DISACCEPT      DISACCEPT%          DISMAX          ROTATE       ROTACCEPT      ROTACCEPT%          ROTMAX       INTRASWAP       INTACCEPT      INTACCEPT%        TRANSFER      TRANACCEPT     TRANACCEPT%          VOLUME       VOLACCEPT      VOLACCEPT%          VOLMAX

ETITLE:     STEP           TOTAL        INTRA(B)       INTRA(NB)       INTER(LJ)             LRC     TOTAL_ELECT            REAL           RECIP            SELF            CORR

STITLE:     STEP          VOLUME        PRESSURE        TOTALMOL     TOT_DENSITY

Printed combined psf to file 2_2_dimethylpentane_360_00_K_merged.psf
MOVE_0:   100000           34728           17014         48.9922          1.4934            4995            2963         59.3193          3.1416               0               0          0.0000            9995            1692         16.9285             981             562         57.2885       7947.5757

ENER_0:   100000     277109.8154     640622.7550     -84094.3606    -259444.0612     -19974.5178          0.0000          0.0000          0.0000          0.0000          0.0000

STAT_0:   100000     550152.5445         20.3086             364        110.0923

PRES_0:   100000        -21.8973          3.6108         -5.8629

MOVE_1:   100000           34229           16805         49.0958          3.8531            5088            3970         78.0267          3.1416               0               0          0.0000            9984            1556         15.5849             981             562         57.2885       7947.5757

ENER_1:   100000     760950.9495    1143733.8353    -139821.5868    -226711.1896     -16250.1094          0.0000          0.0000          0.0000          0.0000          0.0000

STAT_1:   100000    2064498.6555         10.9765             636         51.2603

PRES_1:   100000         -6.8397         -0.3787         -6.9345

Steps/sec. : 2821.5054
MOVE_0:   200000           69113           34271         49.5869          1.6057           10050            5905         58.7562          3.1416               0               0          0.0000           20058            3384         16.8711            2002            1113         55.5944      40280.6919

ENER_0:   200000     355727.5265     664990.3113     -75145.6498    -216526.3571     -17590.7778          0.0000          0.0000          0.0000          0.0000          0.0000

STAT_0:   200000     532292.2888         16.4985             336        105.0335

PRES_0:   200000        -10.1304        -20.2375         -2.6188

MOVE_1:   200000           68749           34094         49.5920          3.7837           10023            7701         76.8333          3.1416               0               0          0.0000           20005            3220         16.0960            2002            1113         55.5944      40280.6919

ENER_1:   200000     933928.7575    1326649.7293    -146056.5537    -229103.9036     -17560.5145          0.0000          0.0000          0.0000          0.0000          0.0000

STAT_1:   200000    2082358.9112         15.7644             664         53.0580

PRES_1:   200000         -0.6166         -0.6183          0.0308

Steps/sec. : 2189.1734
MOVE_0:   300000          103465           51493         49.7685          1.5456           15067            8926         59.2421          3.1416               0               0          0.0000           30094            5148         17.1064            2967            1637         55.1736      31567.7113

ENER_0:   300000     398102.9968     758600.6494     -82617.0332    -259329.2905     -18551.3288          0.0000          0.0000          0.0000          0.0000          0.0000

STAT_0:   300000     655811.7417          6.6657             383         97.1758

PRES_0:   300000        -21.0734        -32.7092         -4.4234

MOVE_1:   300000          103286           51410         49.7744          4.3466           15092           11502         76.2126          3.1416               0               0          0.0000           30029            5031         16.7538            2967            1637         55.1736      31567.7113

ENER_1:   300000     862785.8688    1213615.6868    -135187.1011    -199524.0861     -16118.6308          0.0000          0.0000          0.0000          0.0000          0.0000

STAT_1:   300000    1958839.4583          8.4157             617         52.4113

PRES_1:   300000         -9.4504         -6.7307         -6.5621

Steps/sec. : 2346.6117
MOVE_0:   400000          138324           69046         49.9161          2.4570           20030           12155         60.6840          3.1416               0               0          0.0000           40116            7034         17.5342            3964            2170         54.7427      14959.0891

ENER_0:   400000     329577.4392     559642.3336     -67037.0486    -151715.8342     -11312.0116          0.0000          0.0000          0.0000          0.0000          0.0000

STAT_0:   400000     633740.5308         17.7441             294         77.1924

PRES_0:   400000         -7.6813         -5.3494          0.3205

MOVE_1:   400000          137429           68461         49.8155          3.3452           20154           15291         75.8708          3.1416               0               0          0.0000           39983            6828         17.0773            3964            2170         54.7427      14959.0891

ENER_1:   400000     965770.8357    1401920.5659    -159618.2917    -255662.4609     -20868.9776          0.0000          0.0000          0.0000          0.0000          0.0000

STAT_1:   400000    1980910.6692         13.7251             706         59.3032

PRES_1:   400000         -3.4570         -4.2331         -4.4231

Steps/sec. : 2615.0081
MOVE_0:   500000          173082           86414         49.9266          1.7538           24962           15259         61.1289          3.1416               0               0          0.0000           50135            8772         17.4968            5025            2737         54.4677      22324.8348

ENER_0:   500000     374544.3479     664507.0740     -73814.8513    -201828.1641     -14319.7107          0.0000          0.0000          0.0000          0.0000          0.0000

STAT_0:   500000     665613.0317         13.0798             339         84.7455

PRES_0:   500000        -11.5232         -7.8716        -12.1750

MOVE_1:   500000          171771           85687         49.8844          3.9612           25170           19012         75.5344          3.1416               0               0          0.0000           49855            8611         17.2721            5025            2737         54.4677      22324.8348

ENER_1:   500000     951549.9704    1344963.7707    -145464.0533    -229357.1850     -18592.5620          0.0000          0.0000          0.0000          0.0000          0.0000

STAT_1:   500000    1949038.1683         11.6803             661         56.4312

PRES_1:   500000         -3.9995         -6.6083         -5.4605

Steps/sec. : 2448.0843
MOVE_0:   600000          207766          103822         49.9706          2.0968           29943           18461         61.6538          3.1416               0               0          0.0000           60078           10642         17.7136            6010            3273         54.4592      20245.5685

ENER_0:   600000     391187.9123     662869.5720     -72467.8371    -185577.9607     -13635.8618          0.0000          0.0000          0.0000          0.0000          0.0000

STAT_0:   600000     658363.6867          9.9143             329         83.1512

PRES_0:   600000        -13.7316         -3.9165        -22.4145

MOVE_1:   600000          206095          102882         49.9197          3.9033           30137           22764         75.5351          3.1416               0               0          0.0000           59971           10471         17.4601            6010            3273         54.4592      20245.5685

ENER_1:   600000     942996.3233    1350465.9240    -147177.2303    -241203.9927     -19088.3777          0.0000          0.0000          0.0000          0.0000          0.0000

STAT_1:   600000    1956287.5133         10.4451             671         57.0727

PRES_1:   600000         -7.4375         -2.4775        -10.3491

Steps/sec. : 2423.5646
MOVE_0:   700000          242248          121126         50.0008          2.2712           34906           21716         62.2128          3.1416               0               0          0.0000           70202           12479         17.7758            7031            3837         54.5726      30635.2687

ENER_0:   700000     429323.8153     710686.5417     -80454.2024    -187294.3030     -13614.2210          0.0000          0.0000          0.0000          0.0000          0.0000

STAT_0:   700000     802744.0914          5.7695             363         75.2433

PRES_0:   700000        -15.9361        -14.6365        -16.7596

MOVE_1:   700000          240638          120135         49.9235          2.8139           35019           26354         75.2563          3.1416               0               0          0.0000           69956           12342         17.6425            7031            3837         54.5726      30635.2687

ENER_1:   700000     831758.4374    1243735.9000    -141778.1178    -251625.5947     -18573.7501          0.0000          0.0000          0.0000          0.0000          0.0000

STAT_1:   700000    1811907.1086         17.1127             637         58.4981

PRES_1:   700000         -0.7694          0.4219         -0.9962

Steps/sec. : 2577.8360
MOVE_0:   800000          276806          138512         50.0394          3.3006           39967           25300         63.3022          3.1416               0               0          0.0000           80263           14453         18.0071            8053            4396         54.5884      48031.8745

ENER_0:   800000     403489.9324     571264.1846     -58850.3666    -101425.6172      -7498.2684          0.0000          0.0000          0.0000          0.0000          0.0000

STAT_0:   800000     836490.6024         13.7234             275         54.7029

PRES_0:   800000         -0.3021         -9.1074          0.8018

MOVE_1:   800000          275101          137363         49.9318          2.3754           39969           29844         74.6679          3.1416               0               0          0.0000           79841           14228         17.8204            8053            4396         54.5884      48031.8745

ENER_1:   800000     962295.4349    1487999.4897    -157517.3767    -343669.9961     -24516.6820          0.0000          0.0000          0.0000          0.0000          0.0000

STAT_1:   800000    1778160.5976         14.2350             725         67.8431

PRES_1:   800000         -1.3377         -7.7821         -7.7022

Steps/sec. : 3038.0124
MOVE_0:   900000          311038          155643         50.0399          3.1874           45004           29052         64.5543          3.1416               0               0          0.0000           90318           16531         18.3031            9040            4922         54.4469      22264.3108

ENER_0:   900000     432694.8456     613387.3794     -66662.7753    -105293.3081      -8736.4503          0.0000          0.0000          0.0000          0.0000          0.0000

STAT_0:   900000     924125.2526         15.2655             312         56.1775

PRES_0:   900000         -1.9544          3.9105         -7.0744

MOVE_1:   900000          309662          154685         49.9529          2.7589           44986           33349         74.1320          3.1416               0               0          0.0000           89952           16343         18.1686            9040            4922         54.4469      22264.3108

ENER_1:   900000     930059.3285    1375138.6476    -153178.2915    -268678.3818     -23222.6458          0.0000          0.0000          0.0000          0.0000          0.0000

STAT_1:   900000    1690525.9474          6.3876             688         67.7182

PRES_1:   900000        -13.4622        -11.6595        -15.1538

Steps/sec. : 3085.5122
MOVE_0:  1000000          345503          172870         50.0343          2.6177           50097           32842         65.5568          3.1416               0               0          0.0000          100209           18480         18.4415           10061            5457         54.2391      14610.1882

ENER_0:  1000000     536557.8944     805739.5746     -86887.9495    -169697.1348     -12596.5959          0.0000          0.0000          0.0000          0.0000          0.0000

STAT_0:  1000000     986110.0751         16.1647             387         65.3016

PRES_0:  1000000         -0.2805         -1.9604         -6.9733

MOVE_1:  1000000          344085          171925         49.9659          2.6922           50104           37009         73.8644          3.1416               0               0          0.0000           99941           18367         18.3778           10061            5457         54.2391      14610.1882

ENER_1:  1000000     851525.8900    1243765.4509    -126116.8292    -246985.5103     -19137.2214          0.0000          0.0000          0.0000          0.0000          0.0000

STAT_1:  1000000    1628541.1249         12.4490             613         62.6326

PRES_1:  1000000        -11.2782         -0.0741         -7.0644

Simulation Time (total): 381.1469sec.
GOMC Serial Version 1.9
Completed at: Sat Apr 22 20:11:15 2017
On hostname: potoff39.eng.wayne.edu
