GOMC Serial Version 1.9
Started at: Fri Dec  9 11:44:19 2016
On hostname: potoff39.eng.wayne.edu

Total number of CPUs: 4
Total number of CPUs available: 4
Model name: Intel(R) Core(TM) i5-2500K CPU @ 3.30GHz

System name: Linux
Release: 2.6.32-642.4.2.el6.x86_64
Version: #1 SMP Tue Aug 23 19:58:13 UTC 2016
Kernel Architecture: x86_64
Total Ram: 7856.3MB
Used Ram: 5541.8MB
Working in the current directory /home3/soroush/Desktop/validation/GOMC_Serial-development_1.90/GOMC_Examples-master/GCMC/hexane/run2a_bridge

------------------------------------------------------
This code was compiled to support the grand canonical ensemble.
------------------------------------------------------

REMINDER: EXOTIC force field has been selected!
Temperature of system has been set to 510.0 K 
By default intra box swap frequency has been set to zero
Warning: Electrostatic energy would not be calculated!
Reading from Exotic Parameter File file: ./../../../common/Par_Mie_Alkane_Exotic.inp

Finished reading Exotic Parameter File file: ./../../../common/Par_Mie_Alkane_Exotic.inp

Reading from Box 1 PDB coordinate file file: ./STEP3_START_C6P_vap_BOX_0.pdb

Finished reading Box 1 PDB coordinate file file: ./STEP3_START_C6P_vap_BOX_0.pdb

Reading from Box 2 PDB coordinate file file: ./STEP3_START_C6P_reservoir_BOX_1.pdb

Finished reading Box 2 PDB coordinate file file: ./STEP3_START_C6P_reservoir_BOX_1.pdb

Random number seed: 739931786

Molecules in PSF:

Molecule Kind: C6P
Idx	name	type	charge	mass
0	C1	CH3	0.0	15.0
1	C2	CH2	0.0	14.0
2	C3	CH2	0.0	14.0
3	C4	CH2	0.0	14.0
4	C5	CH2	0.0	14.0
5	C6	CH3	0.0	15.0

Bonds:
[0 1] [1 2] [2 3] [3 4] [4 5] 

Angles:
[0 1 2] [1 2 3] [2 3 4] [3 4 5] 

Dihedrals:
[0 1 2 3] [1 2 3 4] [2 3 4 5] 

REMINDER! 1-3 and 1-4 Interaction is OFF


########################## INITIAL SIMULATION ENERGY ##########################
ETITLE_BOX_0    TOTAL           INTRA(B)        INTRA(N)        INTER(LJ)       LRC             TOTAL_ELECT     REAL            RECIP           SELF            CORR            

ENERGY_BOX_0    -347.5427       0.0201          -196.1767       -145.6975       -5.6886         0.0000          0.0000          0.0000          0.0000          -0.0000         

ETITLE_BOX_1    TOTAL           INTRA(B)        INTRA(N)        INTER(LJ)       LRC             TOTAL_ELECT     REAL            RECIP           SELF            CORR            

ENERGY_BOX_1    -58795.0322     22.1171         -58817.1493     0.0000          0.0000          0.0000          0.0000          0.0000          0.0000          -0.0000         

###############################################################################

############################# STARTING SIMULATION #############################
MTITLE_BOX_0    DISTRY          DISACCEPT       DISACCEPT%      DISMAX          ROTATE          ROTACCEPT       ROTACCEPT%      ROTMAX          INTRASWAP       INTACCEPT       INTACCEPT%      TRANSFER        TRANACCEPT      TRANACCEPT%     STEP            

ETITLE_BOX_0    TOTAL           INTRA(B)        INTRA(N)        INTER(LJ)       LRC             TOTAL_ELECT     REAL            RECIP           SELF            CORR            
STITLE_BOX_0    TOTALMOL        

MTITLE_BOX_1    TRANSFER        TRANACCEPT      TRANACCEPT%     STEP            

ETITLE_BOX_1    TOTAL           INTRA(B)        INTRA(N)        INTER(LJ)       LRC             TOTAL_ELECT     REAL            RECIP           SELF            CORR            
STITLE_BOX_1    TOTALMOL        

Printed combined psf to file C6P_510_00_K_u_4140_r1a.psf
MOVE_BOX_0      1950            851             43.6410         1.8848          1032            688             66.6667         3.1416          0               0               0.0000          3549            1690            47.6190         10000           

ENERGY_BOX_0    55324.9865      75202.5004      -4841.1173      -13580.1098     -1456.2868      0.0000          0.0000          0.0000          0.0000          0.0000          

STAT_BOX_0      32              

MOVE_BOX_1      3469            1720            49.5820         10000           

ENERGY_BOX_1    1167327.7207    1247833.3677    -80505.6471     0.0000          0.0000          0.0000          0.0000          0.0000          0.0000          0.0000          

STAT_BOX_1      570             

Steps/sec. : 6379.3821
MOVE_BOX_0      3975            1779            44.7547         0.7192          2065            1178            57.0460         0.7614          0               0               0.0000          6944            3057            44.0236         20000           

ENERGY_BOX_0    55442.7841      241369.9845     -15231.4804     -155608.0769    -15087.6432     0.0000          0.0000          0.0000          0.0000          0.0000          

STAT_BOX_0      103             

MOVE_BOX_1      7016            3158            45.0114         20000           

ENERGY_BOX_1    1102067.0645    1175863.5628    -73796.4983     0.0000          0.0000          0.0000          0.0000          0.0000          0.0000          0.0000          

STAT_BOX_1      499             

Steps/sec. : 4300.7422
MOVE_BOX_0      5988            2777            46.3761         0.6405          3088            1702            55.1166         0.7720          0               0               0.0000          10388           4026            38.7563         30000           

ENERGY_BOX_0    37918.6327      262218.4702     -16759.5340     -189700.7903    -17839.5132     0.0000          0.0000          0.0000          0.0000          0.0000          

STAT_BOX_0      112             

MOVE_BOX_1      10536           4136            39.2559         30000           

ENERGY_BOX_1    1118372.1195    1190920.3915    -72548.2719     0.0000          0.0000          0.0000          0.0000          0.0000          0.0000          0.0000          

STAT_BOX_1      490             

Steps/sec. : 2965.2183
MOVE_BOX_0      8063            3818            47.3521         0.6353          4104            2209            53.8255         0.7607          0               0               0.0000          13840           4786            34.5809         40000           

ENERGY_BOX_0    65215.0193      285378.4611     -16653.9025     -185027.2120    -18482.3273     0.0000          0.0000          0.0000          0.0000          0.0000          

STAT_BOX_0      114             

MOVE_BOX_1      13993           4898            35.0032         40000           

ENERGY_BOX_1    1109644.7851    1178856.0158    -69211.2307     0.0000          0.0000          0.0000          0.0000          0.0000          0.0000          0.0000          

STAT_BOX_1      488             

Steps/sec. : 2648.4616
MOVE_BOX_0      10107           4852            48.0063         0.6959          5064            2705            53.4163         0.9552          0               0               0.0000          17353           5709            32.8992         50000           

ENERGY_BOX_0    60884.2568      256229.2476     -12272.2497     -167393.4814    -15679.2597     0.0000          0.0000          0.0000          0.0000          0.0000          

STAT_BOX_0      105             

MOVE_BOX_1      17476           5812            33.2570         50000           

ENERGY_BOX_1    1124290.3816    1194928.8276    -70638.4460     0.0000          0.0000          0.0000          0.0000          0.0000          0.0000          0.0000          

STAT_BOX_1      497             

Steps/sec. : 2824.6225
MOVE_BOX_0      12200           5910            48.4426         0.7576          6057            3209            52.9800         1.0271          0               0               0.0000          20818           6738            32.3662         60000           

ENERGY_BOX_0    77822.8147      194121.3435     -11308.3383     -96558.2331     -8431.9574      0.0000          0.0000          0.0000          0.0000          0.0000          

STAT_BOX_0      77              

MOVE_BOX_1      20925           6813            32.5591         60000           

ENERGY_BOX_1    1203730.7845    1278765.1681    -75034.3836     0.0000          0.0000          0.0000          0.0000          0.0000          0.0000          0.0000          

STAT_BOX_1      525             

Steps/sec. : 3046.1726
MOVE_BOX_0      14195           7002            49.3272         1.6471          7084            3775            53.2891         2.5841          0               0               0.0000          24284           8225            33.8700         70000           

ENERGY_BOX_0    44874.5166      61450.2042      -2658.6969      -12880.2397     -1036.7510      0.0000          0.0000          0.0000          0.0000          0.0000          

STAT_BOX_0      27              

MOVE_BOX_1      24437           8250            33.7603         70000           

ENERGY_BOX_1    1355107.1551    1439144.6093    -84037.4542     0.0000          0.0000          0.0000          0.0000          0.0000          0.0000          0.0000          

STAT_BOX_1      575             

Steps/sec. : 4626.3378
MOVE_BOX_0      16165           7948            49.1680         0.9641          8106            4278            52.7757         1.4523          0               0               0.0000          27742           9763            35.1921         80000           

ENERGY_BOX_0    65404.8106      152570.4259     -9851.3898      -71119.3180     -6194.9075      0.0000          0.0000          0.0000          0.0000          0.0000          

STAT_BOX_0      66              

MOVE_BOX_1      27987           9827            35.1127         80000           

ENERGY_BOX_1    1242729.3560    1320783.4997    -78054.1437     0.0000          0.0000          0.0000          0.0000          0.0000          0.0000          0.0000          

STAT_BOX_1      536             

Steps/sec. : 4900.2771
MOVE_BOX_0      18147           8978            49.4737         1.3165          9168            4825            52.6287         1.7878          0               0               0.0000          31189           11070           35.4933         90000           

ENERGY_BOX_0    75261.2287      114052.9766     -6934.0695      -29104.3862     -2753.2922      0.0000          0.0000          0.0000          0.0000          0.0000          

STAT_BOX_0      44              

MOVE_BOX_1      31496           11112           35.2807         90000           

ENERGY_BOX_1    1257762.4197    1341520.3432    -83757.9235     0.0000          0.0000          0.0000          0.0000          0.0000          0.0000          0.0000          

STAT_BOX_1      558             

Steps/sec. : 3779.8094
MOVE_BOX_0      20205           10051           49.7451         1.8355          10149           5456            53.7590         3.1416          0               0               0.0000          34694           12786           36.8536         100000          

ENERGY_BOX_0    65533.4293      108899.4670     -6755.6270      -33601.1306     -3009.2801      0.0000          0.0000          0.0000          0.0000          0.0000          

STAT_BOX_0      46              

MOVE_BOX_1      34952           12830           36.7075         100000          

ENERGY_BOX_1    1289211.2750    1367951.3278    -78740.0528     0.0000          0.0000          0.0000          0.0000          0.0000          0.0000          0.0000          

STAT_BOX_1      556             

Steps/sec. : 6305.3012
MOVE_BOX_0      22217           11002           49.5206         0.9473          11131           5925            53.2297         1.6381          0               0               0.0000          38155           14073           36.8838         110000          

ENERGY_BOX_0    69771.1386      125500.3309     -7479.6088      -44404.0762     -3845.5073      0.0000          0.0000          0.0000          0.0000          0.0000          

STAT_BOX_0      52              

MOVE_BOX_1      38497           14123           36.6860         110000          

ENERGY_BOX_1    1263100.9881    1344543.5633    -81442.5752     0.0000          0.0000          0.0000          0.0000          0.0000          0.0000          0.0000          

STAT_BOX_1      550             

Steps/sec. : 3666.3061
MOVE_BOX_0      24250           12079           49.8103         1.6176          12174           6469            53.1378         2.2182          0               0               0.0000          41662           15496           37.1946         120000          

ENERGY_BOX_0    37561.8714      50463.8723      -2244.0853      -10030.7452     -627.1704       0.0000          0.0000          0.0000          0.0000          0.0000          

STAT_BOX_0      21              

MOVE_BOX_1      41914           15515           37.0163         120000          

ENERGY_BOX_1    1326282.0037    1407615.2733    -81333.2696     0.0000          0.0000          0.0000          0.0000          0.0000          0.0000          0.0000          

STAT_BOX_1      581             

Steps/sec. : 4470.7926
MOVE_BOX_0      26240           13042           49.7027         0.9544          13206           7012            53.0971         2.2516          0               0               0.0000          45148           16980           37.6096         130000          

ENERGY_BOX_0    90412.4096      198352.7677     -10734.2386     -88553.7280     -8652.3915      0.0000          0.0000          0.0000          0.0000          0.0000          

STAT_BOX_0      78              

MOVE_BOX_1      45406           17056           37.5633         130000          

ENERGY_BOX_1    1213822.4676    1291694.8157    -77872.3481     0.0000          0.0000          0.0000          0.0000          0.0000          0.0000          0.0000          

STAT_BOX_1      524             

Steps/sec. : 4941.4072
MOVE_BOX_0      28221           14018           49.6722         0.7051          14242           7485            52.5558         0.8154          0               0               0.0000          48618           18016           37.0562         140000          

ENERGY_BOX_0    35259.3533      270985.5180     -17708.6761     -198880.9700    -19136.5186     0.0000          0.0000          0.0000          0.0000          0.0000          

STAT_BOX_0      116             

MOVE_BOX_1      48919           18130           37.0613         140000          

ENERGY_BOX_1    1142213.9702    1211776.9860    -69563.0158     0.0000          0.0000          0.0000          0.0000          0.0000          0.0000          0.0000          

STAT_BOX_1      486             

Steps/sec. : 3113.0816
MOVE_BOX_0      30245           15005           49.6115         0.5333          15241           7981            52.3653         0.7557          0               0               0.0000          52130           18812           36.0867         150000          

ENERGY_BOX_0    35317.9543      247655.3967     -15413.3394     -180944.7686    -15979.3344     0.0000          0.0000          0.0000          0.0000          0.0000          

STAT_BOX_0      106             

MOVE_BOX_1      52384           18916           36.1103         150000          

ENERGY_BOX_1    1136503.6450    1202883.3024    -66379.6574     0.0000          0.0000          0.0000          0.0000          0.0000          0.0000          0.0000          

STAT_BOX_1      496             

Steps/sec. : 2639.1221
MOVE_BOX_0      32255           16157           50.0915         1.8948          16227           8558            52.7393         3.1416          0               0               0.0000          55700           20357           36.5476         160000          

ENERGY_BOX_0    59137.1498      74316.7340      -4461.8322      -9351.0610      -1366.6910      0.0000          0.0000          0.0000          0.0000          0.0000          

STAT_BOX_0      31              

MOVE_BOX_1      55818           20386           36.5223         160000          

ENERGY_BOX_1    1307046.5074    1389732.8476    -82686.3402     0.0000          0.0000          0.0000          0.0000          0.0000          0.0000          0.0000          

STAT_BOX_1      571             

Steps/sec. : 4698.9475
MOVE_BOX_0      34265           17183           50.1474         1.9751          17241           9148            53.0596         3.1416          0               0               0.0000          59169           21999           37.1799         170000          

ENERGY_BOX_0    54343.0291      94843.9915      -6484.5258      -31625.7940     -2390.6427      0.0000          0.0000          0.0000          0.0000          0.0000          

STAT_BOX_0      41              

MOVE_BOX_1      59325           22038           37.1479         170000          

ENERGY_BOX_1    1249388.7926    1327770.4421    -78381.6495     0.0000          0.0000          0.0000          0.0000          0.0000          0.0000          0.0000          

STAT_BOX_1      561             

Steps/sec. : 5679.8270
MOVE_BOX_0      36248           18201           50.2124         2.3361          18262           9783            53.5703         3.1416          0               0               0.0000          62670           23763           37.9177         180000          

ENERGY_BOX_0    37637.8313      45214.1383      -2956.2484      -4051.1966      -568.8620       0.0000          0.0000          0.0000          0.0000          0.0000          

STAT_BOX_0      20              

MOVE_BOX_1      62820           23781           37.8558         180000          

ENERGY_BOX_1    1321634.2701    1406881.4338    -85247.1637     0.0000          0.0000          0.0000          0.0000          0.0000          0.0000          0.0000          

STAT_BOX_1      582             

Steps/sec. : 6683.4873
MOVE_BOX_0      38234           19093           49.9372         0.6794          19218           10208           53.1169         0.7956          0               0               0.0000          66109           24909           37.6787         190000          

ENERGY_BOX_0    46046.4657      254428.4840     -17099.9968     -174385.3971    -16896.6244     0.0000          0.0000          0.0000          0.0000          0.0000          

STAT_BOX_0      109             

MOVE_BOX_1      66439           25016           37.6526         190000          

ENERGY_BOX_1    1162643.5140    1233013.8858    -70370.3719     0.0000          0.0000          0.0000          0.0000          0.0000          0.0000          0.0000          

STAT_BOX_1      493             

Steps/sec. : 3325.1843
MOVE_BOX_0      40300           20111           49.9032         0.5794          20156           10669           52.9321         0.6446          0               0               0.0000          69576           25655           36.8733         200000          

ENERGY_BOX_0    19685.9894      288103.1774     -17757.1503     -229144.2537    -21515.7841     0.0000          0.0000          0.0000          0.0000          0.0000          

STAT_BOX_0      123             

MOVE_BOX_1      69968           25776           36.8397         200000          

ENERGY_BOX_1    1157537.6658    1225382.0267    -67844.3610     0.0000          0.0000          0.0000          0.0000          0.0000          0.0000          0.0000          

STAT_BOX_1      479             

Steps/sec. : 2618.2487
MOVE_BOX_0      42313           21163           50.0154         0.8384          21168           11209           52.9526         1.1640          0               0               0.0000          73121           26566           36.3316         210000          

ENERGY_BOX_0    79779.2776      150547.1811     -9161.2879      -56656.0939     -4950.5218      0.0000          0.0000          0.0000          0.0000          0.0000          

STAT_BOX_0      59              

MOVE_BOX_1      73398           26623           36.2721         210000          

ENERGY_BOX_1    1253866.9343    1336004.4683    -82137.5340     0.0000          0.0000          0.0000          0.0000          0.0000          0.0000          0.0000          

STAT_BOX_1      543             

Steps/sec. : 2797.6739
MOVE_BOX_0      44342           22247           50.1714         1.3821          22172           11759           53.0354         2.8102          0               0               0.0000          76618           28110           36.6885         220000          

ENERGY_BOX_0    57687.1937      92514.7735      -6330.2689      -26221.8628     -2275.4481      0.0000          0.0000          0.0000          0.0000          0.0000          

STAT_BOX_0      40              

MOVE_BOX_1      76868           28148           36.6186         220000          

ENERGY_BOX_1    1305103.3384    1385159.0635    -80055.7251     0.0000          0.0000          0.0000          0.0000          0.0000          0.0000          0.0000          

STAT_BOX_1      562             

Steps/sec. : 4886.2936
MOVE_BOX_0      46343           23323           50.3269         2.3632          23122           12330           53.3258         3.1416          0               0               0.0000          80201           29858           37.2290         230000          

ENERGY_BOX_0    41149.4286      59432.0651      -4233.9132      -13159.8765     -888.8469       0.0000          0.0000          0.0000          0.0000          0.0000          

STAT_BOX_0      25              

MOVE_BOX_1      80334           29881           37.1960         230000          

ENERGY_BOX_1    1301269.0103    1383173.9672    -81904.9569     0.0000          0.0000          0.0000          0.0000          0.0000          0.0000          0.0000          

STAT_BOX_1      577             

Steps/sec. : 6412.8215
MOVE_BOX_0      48318           24346           50.3870         2.6943          24171           12976           53.6842         3.1416          0               0               0.0000          83619           31563           37.7462         240000          

ENERGY_BOX_0    51664.6407      63318.3600      -3511.0259      -7181.3165      -961.3768       0.0000          0.0000          0.0000          0.0000          0.0000          

STAT_BOX_0      26              

MOVE_BOX_1      83892           31587           37.6520         240000          

ENERGY_BOX_1    1298009.3305    1383965.1828    -85955.8523     0.0000          0.0000          0.0000          0.0000          0.0000          0.0000          0.0000          

STAT_BOX_1      576             

Steps/sec. : 6223.4379
MOVE_BOX_0      50305           25352           50.3966         2.8242          25158           13594           54.0345         3.1416          0               0               0.0000          87170           33338           38.2448         250000          

ENERGY_BOX_0    61589.2834      95679.5994      -4967.8357      -26613.7988     -2508.6815      0.0000          0.0000          0.0000          0.0000          0.0000          

STAT_BOX_0      42              

MOVE_BOX_1      87367           33378           38.2044         250000          

ENERGY_BOX_1    1247257.3474    1330448.8057    -83191.4583     0.0000          0.0000          0.0000          0.0000          0.0000          0.0000          0.0000          

STAT_BOX_1      560             

Steps/sec. : 6902.5157
MOVE_BOX_0      52309           26307           50.2915         1.2899          26189           14128           53.9463         1.6440          0               0               0.0000          90680           34830           38.4098         260000          

ENERGY_BOX_0    52657.9027      89732.7868      -6242.7629      -28556.6730     -2275.4481      0.0000          0.0000          0.0000          0.0000          0.0000          

STAT_BOX_0      40              

MOVE_BOX_1      90822           34868           38.3916         260000          

ENERGY_BOX_1    1291606.7377    1375892.7964    -84286.0588     0.0000          0.0000          0.0000          0.0000          0.0000          0.0000          0.0000          

STAT_BOX_1      562             

Steps/sec. : 4939.1524
MOVE_BOX_0      54284           27305           50.3003         1.3162          27123           14654           54.0279         2.6731          0               0               0.0000          94210           36498           38.7411         270000          

ENERGY_BOX_0    85293.1053      135965.6713     -8072.0291      -38755.0297     -3845.5073      0.0000          0.0000          0.0000          0.0000          0.0000          

STAT_BOX_0      52              

MOVE_BOX_1      94383           36548           38.7231         270000          

ENERGY_BOX_1    1259263.1897    1336678.2374    -77415.0477     0.0000          0.0000          0.0000          0.0000          0.0000          0.0000          0.0000          

STAT_BOX_1      550             

Steps/sec. : 5494.8980
MOVE_BOX_0      56292           28323           50.3144         1.0005          28123           15183           53.9878         3.1416          0               0               0.0000          97674           38072           38.9786         280000          

ENERGY_BOX_0    77502.4541      134877.6637     -7656.2075      -45724.1685     -3994.8336      0.0000          0.0000          0.0000          0.0000          0.0000          

STAT_BOX_0      53              

MOVE_BOX_1      97911           38123           38.9364         280000          

ENERGY_BOX_1    1260373.7850    1336677.4683    -76303.6833     0.0000          0.0000          0.0000          0.0000          0.0000          0.0000          0.0000          

STAT_BOX_1      549             

Steps/sec. : 5160.0172
MOVE_BOX_0      58250           29415           50.4979         2.8789          29158           15838           54.3179         3.1416          0               0               0.0000          101259          39807           39.3121         290000          

ENERGY_BOX_0    51751.4889      67337.0861      -4100.6810      -10596.0693     -888.8469       0.0000          0.0000          0.0000          0.0000          0.0000          

STAT_BOX_0      25              

MOVE_BOX_1      101333          39830           39.3061         290000          

ENERGY_BOX_1    1309659.0649    1394341.4756    -84682.4107     0.0000          0.0000          0.0000          0.0000          0.0000          0.0000          0.0000          

STAT_BOX_1      577             

Steps/sec. : 6429.6110
MOVE_BOX_0      60243           30365           50.4042         1.6140          30205           16496           54.6135         3.1416          0               0               0.0000          104826          41485           39.5751         300000          

ENERGY_BOX_0    71658.4054      106522.8500     -7019.5127      -25336.2503     -2508.6815      0.0000          0.0000          0.0000          0.0000          0.0000          

STAT_BOX_0      42              

MOVE_BOX_1      104726          41525           39.6511         300000          

ENERGY_BOX_1    1276075.6685    1359808.5381    -83732.8696     0.0000          0.0000          0.0000          0.0000          0.0000          0.0000          0.0000          

STAT_BOX_1      560             

Steps/sec. : 6454.5737
MOVE_BOX_0      62281           31366           50.3621         1.1808          31197           17056           54.6719         2.2579          0               0               0.0000          108298          43092           39.7902         310000          

ENERGY_BOX_0    57531.9615      102772.6051     -5920.9707      -36690.1081     -2629.5647      0.0000          0.0000          0.0000          0.0000          0.0000          

STAT_BOX_0      43              

MOVE_BOX_1      108224          43133           39.8553         310000          

ENERGY_BOX_1    1317054.2597    1396969.6252    -79915.3656     0.0000          0.0000          0.0000          0.0000          0.0000          0.0000          0.0000          

STAT_BOX_1      559             

Steps/sec. : 5704.2885
MOVE_BOX_0      64279           32403           50.4099         1.5380          32266           17621           54.6117         3.1416          0               0               0.0000          111728          44600           39.9184         320000          

ENERGY_BOX_0    43916.7377      60591.3279      -3007.9260      -12777.8172     -888.8469       0.0000          0.0000          0.0000          0.0000          0.0000          

STAT_BOX_0      25              

MOVE_BOX_1      111727          44623           39.9393         320000          

ENERGY_BOX_1    1326405.9854    1409148.4904    -82742.5051     0.0000          0.0000          0.0000          0.0000          0.0000          0.0000          0.0000          

STAT_BOX_1      577             

Steps/sec. : 4975.1840
MOVE_BOX_0      66388           33501           50.4624         1.7023          33242           18203           54.7590         3.1416          0               0               0.0000          115186          46272           40.1715         330000          

ENERGY_BOX_0    85026.5560      147238.2365     -9073.5477      -48354.0031     -4784.1297      0.0000          0.0000          0.0000          0.0000          0.0000          

STAT_BOX_0      58              

MOVE_BOX_1      115184          46328           40.2209         330000          

ENERGY_BOX_1    1284164.4145    1362767.8817    -78603.4672     0.0000          0.0000          0.0000          0.0000          0.0000          0.0000          0.0000          

STAT_BOX_1      544             

Steps/sec. : 6246.4159
MOVE_BOX_0      68392           34509           50.4577         1.7204          34261           18807           54.8933         3.1416          0               0               0.0000          118696          47970           40.4142         340000          

ENERGY_BOX_0    46896.6217      62150.6772      -3684.3215      -10750.5727     -819.1613       0.0000          0.0000          0.0000          0.0000          0.0000          

STAT_BOX_0      24              

MOVE_BOX_1      118651          47992           40.4480         340000          

ENERGY_BOX_1    1305083.5515    1388551.2414    -83467.6899     0.0000          0.0000          0.0000          0.0000          0.0000          0.0000          0.0000          

STAT_BOX_1      578             

Steps/sec. : 6139.6818
MOVE_BOX_0      70385           35559           50.5207         2.3515          35257           19362           54.9168         3.1416          0               0               0.0000          122220          49588           40.5727         350000          

ENERGY_BOX_0    55268.5061      77444.7020      -4490.6022      -16318.9027     -1366.6910      0.0000          0.0000          0.0000          0.0000          0.0000          

STAT_BOX_0      31              

MOVE_BOX_1      122138          49617           40.6237         350000          

ENERGY_BOX_1    1330546.4773    1413260.3270    -82713.8496     0.0000          0.0000          0.0000          0.0000          0.0000          0.0000          0.0000          

STAT_BOX_1      571             

Steps/sec. : 5477.9212
MOVE_BOX_0      72442           36559           50.4666         1.5575          36198           19864           54.8760         3.1416          0               0               0.0000          125706          51147           40.6878         360000          

ENERGY_BOX_0    41604.3505      53170.8011      -2578.5173      -8419.0713      -568.8620       0.0000          0.0000          0.0000          0.0000          0.0000          

STAT_BOX_0      20              

MOVE_BOX_1      125654          51165           40.7190         360000          

ENERGY_BOX_1    1327705.7863    1413008.7017    -85302.9154     0.0000          0.0000          0.0000          0.0000          0.0000          0.0000          0.0000          

STAT_BOX_1      582             

Steps/sec. : 5177.3420
MOVE_BOX_0      74530           37663           50.5340         2.5698          37234           20539           55.1619         3.1416          0               0               0.0000          129171          52882           40.9395         370000          

ENERGY_BOX_0    56071.5334      81627.8155      -4339.4480      -19760.5473     -1456.2868      0.0000          0.0000          0.0000          0.0000          0.0000          

STAT_BOX_0      32              

MOVE_BOX_1      129065          52912           40.9964         370000          

ENERGY_BOX_1    1315152.2810    1397950.1386    -82797.8575     0.0000          0.0000          0.0000          0.0000          0.0000          0.0000          0.0000          

STAT_BOX_1      570             

Steps/sec. : 6831.9307
MOVE_BOX_0      76505           38570           50.4150         0.9802          38214           21063           55.1185         1.7592          0               0               0.0000          132673          54445           41.0370         380000          

ENERGY_BOX_0    64012.9157      184699.5713     -11004.2390     -100351.6572    -9330.7594      0.0000          0.0000          0.0000          0.0000          0.0000          

STAT_BOX_0      81              

MOVE_BOX_1      132608          54524           41.1167         380000          

ENERGY_BOX_1    1232701.7376    1307357.4984    -74655.7608     0.0000          0.0000          0.0000          0.0000          0.0000          0.0000          0.0000          

STAT_BOX_1      521             

Steps/sec. : 5207.7071
MOVE_BOX_0      78544           39550           50.3539         0.5964          39232           21544           54.9144         0.6909          0               0               0.0000          136079          55403           40.7139         390000          

ENERGY_BOX_0    46240.5538      309026.8773     -18081.9015     -222483.2489    -22221.1730     0.0000          0.0000          0.0000          0.0000          0.0000          

STAT_BOX_0      125             

MOVE_BOX_1      136145          55526           40.7845         390000          

ENERGY_BOX_1    1108444.2954    1170903.6243    -62459.3290     0.0000          0.0000          0.0000          0.0000          0.0000          0.0000          0.0000          

STAT_BOX_1      477             

Steps/sec. : 2903.4368
MOVE_BOX_0      80570           40592           50.3810         0.7435          40188           22033           54.8248         0.8246          0               0               0.0000          139538          56426           40.4377         400000          

ENERGY_BOX_0    64975.6012      250810.4973     -13060.5310     -157686.7221    -15087.6432     0.0000          0.0000          0.0000          0.0000          0.0000          

STAT_BOX_0      103             

MOVE_BOX_1      139704          56527           40.4620         400000          

ENERGY_BOX_1    1139915.7007    1210368.1735    -70452.4727     0.0000          0.0000          0.0000          0.0000          0.0000          0.0000          0.0000          

STAT_BOX_1      499             

Steps/sec. : 3001.4275
MOVE_BOX_0      82583           41602           50.3760         0.7716          41175           22540           54.7420         1.0112          0               0               0.0000          143026          57554           40.2402         410000          

ENERGY_BOX_0    73923.3278      220951.5135     -13529.5653     -121721.7543    -11776.8661     0.0000          0.0000          0.0000          0.0000          0.0000          

STAT_BOX_0      91              

MOVE_BOX_1      143216          57643           40.2490         410000          

ENERGY_BOX_1    1144822.4997    1214452.6856    -69630.1859     0.0000          0.0000          0.0000          0.0000          0.0000          0.0000          0.0000          

STAT_BOX_1      511             

Steps/sec. : 3216.2355
MOVE_BOX_0      84656           42630           50.3567         0.6644          42147           23022           54.6231         0.8496          0               0               0.0000          146413          58372           39.8680         420000          

ENERGY_BOX_0    49885.6423      286177.9486     -17975.7652     -198848.6603    -19467.8808     0.0000          0.0000          0.0000          0.0000          0.0000          

STAT_BOX_0      117             

MOVE_BOX_1      146784          58487           39.8456         420000          

ENERGY_BOX_1    1069168.0702    1140912.2580    -71744.1878     0.0000          0.0000          0.0000          0.0000          0.0000          0.0000          0.0000          

STAT_BOX_1      485             

Steps/sec. : 2770.5099
MOVE_BOX_0      86786           43691           50.3434         0.5957          43111           23509           54.5313         0.9123          0               0               0.0000          149836          59438           39.6687         430000          

ENERGY_BOX_0    66124.2765      260814.7482     -15947.2680     -162763.8693    -15979.3344     0.0000          0.0000          0.0000          0.0000          0.0000          

STAT_BOX_0      106             

MOVE_BOX_1      150267          59542           39.6241         430000          

ENERGY_BOX_1    1149227.1366    1225274.0891    -76046.9526     0.0000          0.0000          0.0000          0.0000          0.0000          0.0000          0.0000          

STAT_BOX_1      496             

Steps/sec. : 3070.8946
MOVE_BOX_0      88849           44716           50.3281         0.5309          44072           23979           54.4087         0.7095          0               0               0.0000          153325          60282           39.3165         440000          

ENERGY_BOX_0    43450.5922      292456.8149     -18349.5902     -210517.4946    -20139.1380     0.0000          0.0000          0.0000          0.0000          0.0000          

STAT_BOX_0      119             

MOVE_BOX_1      153754          60399           39.2829         440000          

ENERGY_BOX_1    1152992.5897    1223085.2335    -70092.6439     0.0000          0.0000          0.0000          0.0000          0.0000          0.0000          0.0000          

STAT_BOX_1      483             

Steps/sec. : 2723.9821
MOVE_BOX_0      90898           45759           50.3410         0.5986          45053           24487           54.3515         0.9342          0               0               0.0000          156794          61138           38.9926         450000          

ENERGY_BOX_0    73042.0825      215790.6087     -10728.0644     -121007.2930    -11013.1689     0.0000          0.0000          0.0000          0.0000          0.0000          

STAT_BOX_0      88              

MOVE_BOX_1      157255          61224           38.9329         450000          

ENERGY_BOX_1    1225348.2581    1296871.8661    -71523.6080     0.0000          0.0000          0.0000          0.0000          0.0000          0.0000          0.0000          

STAT_BOX_1      514             

Steps/sec. : 2731.7636
MOVE_BOX_0      92880           46758           50.3424         0.6263          46027           24977           54.2660         0.8999          0               0               0.0000          160315          62129           38.7543         460000          

ENERGY_BOX_0    55542.9763      202793.5753     -14175.3898     -121555.7532    -11519.4561     0.0000          0.0000          0.0000          0.0000          0.0000          

STAT_BOX_0      90              

MOVE_BOX_1      160778          62217           38.6975         460000          

ENERGY_BOX_1    1176937.8599    1252513.5864    -75575.7266     0.0000          0.0000          0.0000          0.0000          0.0000          0.0000          0.0000          

STAT_BOX_1      512             

Steps/sec. : 2888.5279
MOVE_BOX_0      94849           47752           50.3453         0.6626          47088           25519           54.1943         0.9242          0               0               0.0000          163840          63182           38.5632         470000          

ENERGY_BOX_0    77529.3881      258225.5833     -14640.5659     -151548.2254    -14507.4039     0.0000          0.0000          0.0000          0.0000          0.0000          

STAT_BOX_0      101             

MOVE_BOX_1      164223          63281           38.5336         470000          

ENERGY_BOX_1    1141369.5016    1214036.4126    -72666.9109     0.0000          0.0000          0.0000          0.0000          0.0000          0.0000          0.0000          

STAT_BOX_1      501             

Steps/sec. : 3116.6046
MOVE_BOX_0      96870           48778           50.3541         0.7540          48069           26031           54.1534         1.3835          0               0               0.0000          167305          64145           38.3402         480000          

ENERGY_BOX_0    53027.5579      202171.3510     -10410.0517     -126956.8753    -11776.8661     0.0000          0.0000          0.0000          0.0000          0.0000          

STAT_BOX_0      91              

MOVE_BOX_1      167756          64234           38.2901         480000          

ENERGY_BOX_1    1177457.0262    1246472.8276    -69015.8014     0.0000          0.0000          0.0000          0.0000          0.0000          0.0000          0.0000          

STAT_BOX_1      511             

Steps/sec. : 3027.0668
MOVE_BOX_0      98863           49754           50.3262         0.6155          49037           26501           54.0429         0.9185          0               0               0.0000          170764          65110           38.1286         490000          

ENERGY_BOX_0    51367.9759      251804.2609     -14626.4740     -169830.4766    -15979.3344     0.0000          0.0000          0.0000          0.0000          0.0000          

STAT_BOX_0      106             

MOVE_BOX_1      171336          65214           38.0621         490000          

ENERGY_BOX_1    1128385.5809    1196602.9665    -68217.3856     0.0000          0.0000          0.0000          0.0000          0.0000          0.0000          0.0000          

STAT_BOX_1      496             

Steps/sec. : 2912.5004
MOVE_BOX_0      100835          50756           50.3357         0.6778          50024           26997           53.9681         0.7394          0               0               0.0000          174318          65991           37.8567         500000          

ENERGY_BOX_0    48615.8180      298685.4167     -18400.1182     -210502.1244    -21167.3561     0.0000          0.0000          0.0000          0.0000          0.0000          

STAT_BOX_0      122             

MOVE_BOX_1      174823          66111           37.8160         500000          

ENERGY_BOX_1    1109790.3024    1182525.5096    -72735.2072     0.0000          0.0000          0.0000          0.0000          0.0000          0.0000          0.0000          

STAT_BOX_1      480             

Steps/sec. : 2660.8887
MOVE_BOX_0      102775          51707           50.3109         0.5402          51011           27507           53.9237         0.9310          0               0               0.0000          177868          66990           37.6628         510000          

ENERGY_BOX_0    23851.5911      245818.3348     -17863.5918     -185943.6538    -18159.4981     0.0000          0.0000          0.0000          0.0000          0.0000          

STAT_BOX_0      113             

MOVE_BOX_1      178346          67101           37.6241         510000          

ENERGY_BOX_1    1125562.3343    1197691.9748    -72129.6405     0.0000          0.0000          0.0000          0.0000          0.0000          0.0000          0.0000          

STAT_BOX_1      489             

Steps/sec. : 1513.3117
MOVE_BOX_0      104737          52694           50.3108         0.5359          51984           27974           53.8127         0.6064          0               0               0.0000          181350          67801           37.3868         520000          

ENERGY_BOX_0    37445.3681      246024.2566     -16067.8857     -176228.7494    -16282.2534     0.0000          0.0000          0.0000          0.0000          0.0000          

STAT_BOX_0      107             

MOVE_BOX_1      181929          67906           37.3256         520000          

ENERGY_BOX_1    1118889.9486    1190575.3107    -71685.3621     0.0000          0.0000          0.0000          0.0000          0.0000          0.0000          0.0000          

STAT_BOX_1      495             

Steps/sec. : 1580.1295
MOVE_BOX_0      106697          53689           50.3191         0.6003          52986           28489           53.7670         0.6747          0               0               0.0000          184876          68657           37.1368         530000          

ENERGY_BOX_0    56226.4698      280928.8553     -16606.3021     -188959.5649    -19136.5186     0.0000          0.0000          0.0000          0.0000          0.0000          

STAT_BOX_0      116             

MOVE_BOX_1      185441          68771           37.0851         530000          

ENERGY_BOX_1    1134599.7310    1205969.3284    -71369.5974     0.0000          0.0000          0.0000          0.0000          0.0000          0.0000          0.0000          

STAT_BOX_1      486             

Steps/sec. : 1565.9576
MOVE_BOX_0      108664          54720           50.3571         0.9208          53969           29003           53.7401         1.0091          0               0               0.0000          188412          69704           36.9955         540000          

ENERGY_BOX_0    66250.5396      158096.0112     -9283.0089      -76178.4085     -6384.0541      0.0000          0.0000          0.0000          0.0000          0.0000          

STAT_BOX_0      67              

MOVE_BOX_1      188955          69769           36.9236         540000          

ENERGY_BOX_1    1223478.7904    1299121.4475    -75642.6570     0.0000          0.0000          0.0000          0.0000          0.0000          0.0000          0.0000          

STAT_BOX_1      535             

Steps/sec. : 1680.0435
MOVE_BOX_0      110677          55681           50.3095         0.5523          54955           29494           53.6694         0.8733          0               0               0.0000          191888          70764           36.8778         550000          

ENERGY_BOX_0    36125.5930      269346.0855     -15033.7610     -199704.4043    -18482.3273     0.0000          0.0000          0.0000          0.0000          0.0000          

STAT_BOX_0      114             

MOVE_BOX_1      192480          70876           36.8225         550000          

ENERGY_BOX_1    1146212.7761    1215077.4577    -68864.6815     0.0000          0.0000          0.0000          0.0000          0.0000          0.0000          0.0000          

STAT_BOX_1      488             

Steps/sec. : 1711.5615
MOVE_BOX_0      112721          56825           50.4121         1.5200          55933           30074           53.7679         3.1416          0               0               0.0000          195373          72232           36.9713         560000          

ENERGY_BOX_0    38114.5858      57305.2804      -3861.8173      -14509.7159     -819.1613       0.0000          0.0000          0.0000          0.0000          0.0000          

STAT_BOX_0      24              

MOVE_BOX_1      195973          72254           36.8694         560000          

ENERGY_BOX_1    1328439.6880    1412814.2695    -84374.5815     0.0000          0.0000          0.0000          0.0000          0.0000          0.0000          0.0000          

STAT_BOX_1      578             

Steps/sec. : 2026.8484
MOVE_BOX_0      114694          57823           50.4150         1.5556          56963           30688           53.8736         3.1416          0               0               0.0000          198876          73869           37.1432         570000          

ENERGY_BOX_0    34956.5020      42983.3091      -2476.6260      -5186.1094      -364.0717       0.0000          0.0000          0.0000          0.0000          0.0000          

STAT_BOX_0      16              

MOVE_BOX_1      199467          73883           37.0402         570000          

ENERGY_BOX_1    1320937.9093    1405198.1790    -84260.2697     0.0000          0.0000          0.0000          0.0000          0.0000          0.0000          0.0000          

STAT_BOX_1      586             

Steps/sec. : 2343.8926
MOVE_BOX_0      116681          58790           50.3852         0.9314          58016           31245           53.8558         1.4776          0               0               0.0000          202368          75423           37.2702         580000          

ENERGY_BOX_0    81108.0896      136891.9995     -8152.2537      -43636.8226     -3994.8336      0.0000          0.0000          0.0000          0.0000          0.0000          

STAT_BOX_0      53              

MOVE_BOX_1      202935          75474           37.1912         580000          

ENERGY_BOX_1    1279021.2644    1361814.7629    -82793.4985     0.0000          0.0000          0.0000          0.0000          0.0000          0.0000          0.0000          

STAT_BOX_1      549             

Steps/sec. : 2210.0268
MOVE_BOX_0      118578          59820           50.4478         1.9545          59068           31899           54.0039         3.1416          0               0               0.0000          205896          77127           37.4592         590000          

ENERGY_BOX_0    48783.4083      64389.6215      -2877.2673      -11767.5691     -961.3768       0.0000          0.0000          0.0000          0.0000          0.0000          

STAT_BOX_0      26              

MOVE_BOX_1      206458          77151           37.3689         590000          

ENERGY_BOX_1    1344135.8703    1424520.5369    -80384.6666     0.0000          0.0000          0.0000          0.0000          0.0000          0.0000          0.0000          

STAT_BOX_1      576             

Steps/sec. : 2381.5699
MOVE_BOX_0      120562          60849           50.4711         2.3903          60058           32512           54.1343         3.1416          0               0               0.0000          209411          78880           37.6676         600000          

ENERGY_BOX_0    61190.8911      84585.9766      -3855.8002      -18172.5943     -1366.6910      0.0000          0.0000          0.0000          0.0000          0.0000          

STAT_BOX_0      31              

MOVE_BOX_1      209969          78909           37.5813         600000          

ENERGY_BOX_1    1316269.5016    1402470.5950    -86201.0934     0.0000          0.0000          0.0000          0.0000          0.0000          0.0000          0.0000          

STAT_BOX_1      571             

Steps/sec. : 2390.2687
MOVE_BOX_0      122572          61828           50.4422         1.5395          61081           33063           54.1298         3.1416          0               0               0.0000          212835          80498           37.8218         610000          

ENERGY_BOX_0    49617.2165      62651.9111      -3364.1839      -8982.1877      -688.3231       0.0000          0.0000          0.0000          0.0000          0.0000          

STAT_BOX_0      22              

MOVE_BOX_1      213512          80518           37.7112         610000          

ENERGY_BOX_1    1357270.9591    1441766.3987    -84495.4396     0.0000          0.0000          0.0000          0.0000          0.0000          0.0000          0.0000          

STAT_BOX_1      580             

Steps/sec. : 2252.0453
MOVE_BOX_0      124546          62892           50.4970         2.8934          62038           33689           54.3038         3.1416          0               0               0.0000          216462          82280           38.0113         620000          

ENERGY_BOX_0    58355.3443      84889.5534      -5220.5662      -19764.9160     -1548.7269      0.0000          0.0000          0.0000          0.0000          0.0000          

STAT_BOX_0      33              

MOVE_BOX_1      216954          82311           37.9394         620000          

ENERGY_BOX_1    1302748.8598    1382431.6196    -79682.7599     0.0000          0.0000          0.0000          0.0000          0.0000          0.0000          0.0000          

STAT_BOX_1      569             

Steps/sec. : 2464.4624
MOVE_BOX_0      126554          63857           50.4583         1.9082          63008           34307           54.4486         3.1416          0               0               0.0000          220030          84011           38.1816         630000          

ENERGY_BOX_0    40675.4249      52653.2803      -2758.2649      -8650.7286      -568.8620       0.0000          0.0000          0.0000          0.0000          0.0000          

STAT_BOX_0      20              

MOVE_BOX_1      220408          84029           38.1243         630000          

ENERGY_BOX_1    1381930.4531    1464085.2256    -82154.7724     0.0000          0.0000          0.0000          0.0000          0.0000          0.0000          0.0000          

STAT_BOX_1      582             

Steps/sec. : 2405.6557
MOVE_BOX_0      128589          64939           50.5012         3.3677          63985           34981           54.6706         3.1416          0               0               0.0000          223546          85834           38.3966         640000          

ENERGY_BOX_0    25151.6552      37502.1478      -1770.4359      -10169.0538     -411.0028       0.0000          0.0000          0.0000          0.0000          0.0000          

STAT_BOX_0      17              

MOVE_BOX_1      223880          85849           38.3460         640000          

ENERGY_BOX_1    1372612.3108    1453950.8499    -81338.5391     0.0000          0.0000          0.0000          0.0000          0.0000          0.0000          0.0000          

STAT_BOX_1      585             

Steps/sec. : 2554.0912
MOVE_BOX_0      130589          65949           50.5012         2.6480          64963           35575           54.7619         3.1416          0               0               0.0000          227067          87505           38.5371         650000          

ENERGY_BOX_0    43015.1948      60217.6823      -4166.2130      -12147.4276     -888.8469       0.0000          0.0000          0.0000          0.0000          0.0000          

STAT_BOX_0      25              

MOVE_BOX_1      227381          87528           38.4940         650000          

ENERGY_BOX_1    1302972.6806    1386147.2666    -83174.5860     0.0000          0.0000          0.0000          0.0000          0.0000          0.0000          0.0000          

STAT_BOX_1      577             

Steps/sec. : 2307.8629
MOVE_BOX_0      132590          66935           50.4827         1.4617          65954           36112           54.7533         3.1075          0               0               0.0000          230608          89004           38.5954         660000          

ENERGY_BOX_0    48678.8851      67359.6642      -4004.4580      -13480.2887     -1196.0324      0.0000          0.0000          0.0000          0.0000          0.0000          

STAT_BOX_0      29              

MOVE_BOX_1      230848          89031           38.5669         660000          

ENERGY_BOX_1    1288572.9857    1370333.1640    -81760.1783     0.0000          0.0000          0.0000          0.0000          0.0000          0.0000          0.0000          

STAT_BOX_1      573             

Steps/sec. : 2108.9682
MOVE_BOX_0      134637          67940           50.4616         0.9328          66964           36580           54.6264         1.3994          0               0               0.0000          233988          90337           38.6075         670000          

ENERGY_BOX_0    93126.2109      176102.1576     -8688.1687      -67516.8977     -6770.8803      0.0000          0.0000          0.0000          0.0000          0.0000          

STAT_BOX_0      69              

MOVE_BOX_1      234411          90404           38.5664         670000          

ENERGY_BOX_1    1193136.7369    1271929.5867    -78792.8498     0.0000          0.0000          0.0000          0.0000          0.0000          0.0000          0.0000          

STAT_BOX_1      533             

Steps/sec. : 1979.9440
MOVE_BOX_0      136611          69034           50.5333         2.0556          68038           37252           54.7518         3.1416          0               0               0.0000          237520          92053           38.7559         680000          

ENERGY_BOX_0    55296.1385      77996.5360      -5172.1236      -16071.9871     -1456.2868      0.0000          0.0000          0.0000          0.0000          0.0000          

STAT_BOX_0      32              

MOVE_BOX_1      237831          92083           38.7178         680000          

ENERGY_BOX_1    1312956.2680    1395990.6213    -83034.3533     0.0000          0.0000          0.0000          0.0000          0.0000          0.0000          0.0000          

STAT_BOX_1      570             

Steps/sec. : 2303.2363
MOVE_BOX_0      138558          70043           50.5514         2.3771          69038           37793           54.7423         3.1416          0               0               0.0000          240950          93711           38.8923         690000          

ENERGY_BOX_0    41226.4169      53074.6252      -3734.0299      -7361.8584      -752.3200       0.0000          0.0000          0.0000          0.0000          0.0000          

STAT_BOX_0      23              

MOVE_BOX_1      241454          93732           38.8198         690000          

ENERGY_BOX_1    1316633.9822    1395136.0046    -78502.0224     0.0000          0.0000          0.0000          0.0000          0.0000          0.0000          0.0000          

STAT_BOX_1      579             

Steps/sec. : 2230.9647
MOVE_BOX_0      140609          71056           50.5345         2.0659          70067           38428           54.8446         3.1416          0               0               0.0000          244416          95415           39.0380         700000          

ENERGY_BOX_0    45134.0251      64478.3590      -3660.0040      -14722.9531     -961.3768       0.0000          0.0000          0.0000          0.0000          0.0000          

STAT_BOX_0      26              

MOVE_BOX_1      244908          95439           38.9693         700000          

ENERGY_BOX_1    1303204.0607    1385501.2021    -82297.1414     0.0000          0.0000          0.0000          0.0000          0.0000          0.0000          0.0000          

STAT_BOX_1      576             

Steps/sec. : 2465.7185
MOVE_BOX_0      142615          72006           50.4898         0.8073          71081           38970           54.8248         1.8077          0               0               0.0000          247879          96954           39.1134         710000          

ENERGY_BOX_0    56995.3215      171583.0231     -12093.4186     -94062.3255     -8431.9574      0.0000          0.0000          0.0000          0.0000          0.0000          

STAT_BOX_0      77              

MOVE_BOX_1      248425          97029           39.0577         710000          

ENERGY_BOX_1    1205564.1611    1279879.4412    -74315.2801     0.0000          0.0000          0.0000          0.0000          0.0000          0.0000          0.0000          

STAT_BOX_1      525             

Steps/sec. : 2220.1081
MOVE_BOX_0      144641          73018           50.4822         0.7597          72070           39439           54.7232         0.9977          0               0               0.0000          251370          97934           38.9601         720000          

ENERGY_BOX_0    60709.7429      249885.4669     -15941.3574     -158438.2652    -14796.1014     0.0000          0.0000          0.0000          0.0000          0.0000          

STAT_BOX_0      102             

MOVE_BOX_1      251919          98034           38.9149         720000          

ENERGY_BOX_1    1164935.5331    1236367.7760    -71432.2429     0.0000          0.0000          0.0000          0.0000          0.0000          0.0000          0.0000          

STAT_BOX_1      500             

Steps/sec. : 1657.4427
MOVE_BOX_0      146595          73979           50.4649         0.6196          73039           39919           54.6544         0.8196          0               0               0.0000          254875          98755           38.7464         730000          

ENERGY_BOX_0    20513.2356      278364.7642     -16976.7880     -219707.3846    -21167.3561     0.0000          0.0000          0.0000          0.0000          0.0000          

STAT_BOX_0      122             

MOVE_BOX_1      255491          98875           38.7000         730000          

ENERGY_BOX_1    1079395.3337    1149293.5707    -69898.2370     0.0000          0.0000          0.0000          0.0000          0.0000          0.0000          0.0000          

STAT_BOX_1      480             

Steps/sec. : 1553.2731
MOVE_BOX_0      148582          74989           50.4698         0.6736          74023           40416           54.5992         0.8395          0               0               0.0000          258444          99679           38.5689         740000          

ENERGY_BOX_0    78714.6672      240990.2148     -13725.1248     -135715.4733    -12834.9495     0.0000          0.0000          0.0000          0.0000          0.0000          

STAT_BOX_0      95              

MOVE_BOX_1      258951          99772           38.5293         740000          

ENERGY_BOX_1    1157374.5440    1230362.4168    -72987.8729     0.0000          0.0000          0.0000          0.0000          0.0000          0.0000          0.0000          

STAT_BOX_1      507             

Steps/sec. : 1557.7974
MOVE_BOX_0      150578          75965           50.4489         0.5173          75033           40928           54.5467         0.8350          0               0               0.0000          261938          100541          38.3835         750000          

ENERGY_BOX_0    71044.3568      244515.2367     -14242.0117     -144721.4644    -14507.4039     0.0000          0.0000          0.0000          0.0000          0.0000          

STAT_BOX_0      101             

MOVE_BOX_1      262451          100640          38.3462         750000          

ENERGY_BOX_1    1153681.7008    1226308.7951    -72627.0943     0.0000          0.0000          0.0000          0.0000          0.0000          0.0000          0.0000          

STAT_BOX_1      501             

Steps/sec. : 1559.8341
MOVE_BOX_0      152580          76989           50.4581         0.6200          76001           41413           54.4901         0.7958          0               0               0.0000          265368          101419          38.2182         760000          

ENERGY_BOX_0    52497.4085      252995.8318     -15723.5194     -168492.6505    -16282.2534     0.0000          0.0000          0.0000          0.0000          0.0000          

STAT_BOX_0      107             

MOVE_BOX_1      266051          101524          38.1596         760000          

ENERGY_BOX_1    1144644.4402    1217162.9599    -72518.5197     0.0000          0.0000          0.0000          0.0000          0.0000          0.0000          0.0000          

STAT_BOX_1      495             

Steps/sec. : 1584.6778
MOVE_BOX_0      154596          78040           50.4800         0.8078          76996           41938           54.4678         1.1687          0               0               0.0000          268852          102739          38.2140         770000          

ENERGY_BOX_0    72710.7662      214063.0376     -10865.9954     -119473.1071    -11013.1689     0.0000          0.0000          0.0000          0.0000          0.0000          

STAT_BOX_0      88              

MOVE_BOX_1      269556          102825          38.1461         770000          

ENERGY_BOX_1    1175448.7506    1253972.6087    -78523.8581     0.0000          0.0000          0.0000          0.0000          0.0000          0.0000          0.0000          

STAT_BOX_1      514             

Steps/sec. : 1929.1665
MOVE_BOX_0      156609          79097           50.5060         1.1746          77942           42419           54.4238         1.3419          0               0               0.0000          272399          103929          38.1532         780000          

ENERGY_BOX_0    57053.2292      114700.7402     -6532.9755      -47415.5102     -3699.0253      0.0000          0.0000          0.0000          0.0000          0.0000          

STAT_BOX_0      51              

MOVE_BOX_1      273050          103978          38.0802         780000          

ENERGY_BOX_1    1265471.4069    1342655.3369    -77183.9300     0.0000          0.0000          0.0000          0.0000          0.0000          0.0000          0.0000          

STAT_BOX_1      551             

Steps/sec. : 1769.7126
MOVE_BOX_0      158615          80101           50.5003         1.0091          78972           42971           54.4130         1.7812          0               0               0.0000          275817          105481          38.2431         790000          

ENERGY_BOX_0    61293.1403      151664.3677     -8684.6646      -75491.6554     -6194.9075      0.0000          0.0000          0.0000          0.0000          0.0000          

STAT_BOX_0      66              

MOVE_BOX_1      276596          105545          38.1585         790000          

ENERGY_BOX_1    1229191.4086    1308528.7481    -79337.3395     0.0000          0.0000          0.0000          0.0000          0.0000          0.0000          0.0000          

STAT_BOX_1      536             

Steps/sec. : 2139.2039
MOVE_BOX_0      160640          81092           50.4806         0.6896          79991           43452           54.3211         0.8011          0               0               0.0000          279260          106588          38.1680         800000          

ENERGY_BOX_0    60818.6614      164580.6292     -9453.0264      -87139.8577     -7169.0837      0.0000          0.0000          0.0000          0.0000          0.0000          

STAT_BOX_0      71              

MOVE_BOX_1      280109          106657          38.0770         800000          

ENERGY_BOX_1    1230305.2039    1311275.6167    -80970.4128     0.0000          0.0000          0.0000          0.0000          0.0000          0.0000          0.0000          

STAT_BOX_1      531             

Steps/sec. : 1766.0120
MOVE_BOX_0      162585          82157           50.5317         1.6614          80972           44017           54.3608         3.0687          0               0               0.0000          282816          108011          38.1913         810000          

ENERGY_BOX_0    48085.9656      89132.2963      -7085.2672      -31331.4988     -2629.5647      0.0000          0.0000          0.0000          0.0000          0.0000          

STAT_BOX_0      43              

MOVE_BOX_1      283627          108052          38.0965         810000          

ENERGY_BOX_1    1295711.6222    1377521.1850    -81809.5628     0.0000          0.0000          0.0000          0.0000          0.0000          0.0000          0.0000          

STAT_BOX_1      559             

Steps/sec. : 2031.1228
MOVE_BOX_0      164617          83180           50.5294         1.6824          81967           44528           54.3243         3.1416          0               0               0.0000          286276          109636          38.2973         820000          

ENERGY_BOX_0    82216.2829      121552.8619     -7404.8480      -28922.4508     -3009.2801      0.0000          0.0000          0.0000          0.0000          0.0000          

STAT_BOX_0      46              

MOVE_BOX_1      287140          109680          38.1974         820000          

ENERGY_BOX_1    1321621.5564    1400978.7047    -79357.1483     0.0000          0.0000          0.0000          0.0000          0.0000          0.0000          0.0000          

STAT_BOX_1      556             

Steps/sec. : 2014.0366
MOVE_BOX_0      166602          84187           50.5318         1.7739          82941           45106           54.3832         3.1416          0               0               0.0000          289828          111333          38.4135         830000          

ENERGY_BOX_0    38734.8764      74333.9621      -5457.8735      -28399.0722     -1742.1400      0.0000          0.0000          0.0000          0.0000          0.0000          

STAT_BOX_0      35              

MOVE_BOX_1      290629          111366          38.3190         830000          

ENERGY_BOX_1    1254492.9461    1336386.5661    -81893.6200     0.0000          0.0000          0.0000          0.0000          0.0000          0.0000          0.0000          

STAT_BOX_1      567             

Steps/sec. : 2419.8334
MOVE_BOX_0      168627          85263           50.5631         2.4632          83905           45623           54.3746         3.1416          0               0               0.0000          293244          112817          38.4721         840000          

ENERGY_BOX_0    62000.3835      77425.9134      -4409.3206      -9736.2698      -1279.9396      0.0000          0.0000          0.0000          0.0000          0.0000          

STAT_BOX_0      30              

MOVE_BOX_1      294224          112845          38.3534         840000          

ENERGY_BOX_1    1317016.6433    1396242.5940    -79225.9508     0.0000          0.0000          0.0000          0.0000          0.0000          0.0000          0.0000          

STAT_BOX_1      572             

Steps/sec. : 2097.6137
MOVE_BOX_0      170606          86236           50.5469         1.9373          84883           46252           54.4891         3.1416          0               0               0.0000          296855          114577          38.5970         850000          

ENERGY_BOX_0    58090.8657      67571.1352      -2501.3873      -6351.7117      -627.1704       0.0000          0.0000          0.0000          0.0000          0.0000          

STAT_BOX_0      21              

MOVE_BOX_1      297656          114596          38.4995         850000          

ENERGY_BOX_1    1308087.8737    1394856.0235    -86768.1497     0.0000          0.0000          0.0000          0.0000          0.0000          0.0000          0.0000          

STAT_BOX_1      581             

Steps/sec. : 2439.3201
MOVE_BOX_0      172522          87164           50.5234         1.1766          85868           46821           54.5267         2.7862          0               0               0.0000          300331          116251          38.7076         860000          

ENERGY_BOX_0    46390.8656      71876.3985      -4580.5493      -19448.6968     -1456.2868      0.0000          0.0000          0.0000          0.0000          0.0000          

STAT_BOX_0      32              

MOVE_BOX_1      301279          116281          38.5958         860000          

ENERGY_BOX_1    1302654.4246    1383760.6800    -81106.2554     0.0000          0.0000          0.0000          0.0000          0.0000          0.0000          0.0000          

STAT_BOX_1      570             

Steps/sec. : 2143.0600
MOVE_BOX_0      174541          88251           50.5618         1.7363          86844           47369           54.5449         3.1416          0               0               0.0000          303872          117890          38.7959         870000          

ENERGY_BOX_0    62950.3153      85665.8999      -4505.6051      -16753.6927     -1456.2868      0.0000          0.0000          0.0000          0.0000          0.0000          

STAT_BOX_0      32              

MOVE_BOX_1      304743          117920          38.6949         870000          

ENERGY_BOX_1    1315806.5639    1401561.1616    -85754.5977     0.0000          0.0000          0.0000          0.0000          0.0000          0.0000          0.0000          

STAT_BOX_1      570             

Steps/sec. : 2260.1485
MOVE_BOX_0      176563          89279           50.5650         1.8276          87862           47973           54.6004         3.1416          0               0               0.0000          307412          119579          38.8986         880000          

ENERGY_BOX_0    40212.5847      55178.1828      -3498.0805      -10779.1946     -688.3231       0.0000          0.0000          0.0000          0.0000          0.0000          

STAT_BOX_0      22              

MOVE_BOX_1      308163          119599          38.8103         880000          

ENERGY_BOX_1    1326607.4655    1412041.7710    -85434.3054     0.0000          0.0000          0.0000          0.0000          0.0000          0.0000          0.0000          

STAT_BOX_1      580             

Steps/sec. : 2516.3159
MOVE_BOX_0      178572          90313           50.5751         1.8177          88881           48565           54.6405         3.1416          0               0               0.0000          310917          121202          38.9821         890000          

ENERGY_BOX_0    33828.9879      42744.2174      -2581.9449      -5872.5063      -460.7782       0.0000          0.0000          0.0000          0.0000          0.0000          

STAT_BOX_0      18              

MOVE_BOX_1      311630          121218          38.8981         890000          

ENERGY_BOX_1    1355930.9927    1440967.9644    -85036.9717     0.0000          0.0000          0.0000          0.0000          0.0000          0.0000          0.0000          

STAT_BOX_1      584             

Steps/sec. : 2307.9114
MOVE_BOX_0      180621          91288           50.5412         0.9149          89912           49126           54.6379         1.5240          0               0               0.0000          314333          122783          39.0614         900000          

ENERGY_BOX_0    66591.5578      165376.3643     -11678.0560     -79319.0293     -7787.7212      0.0000          0.0000          0.0000          0.0000          0.0000          

STAT_BOX_0      74              

MOVE_BOX_1      315134          122855          38.9850         900000          

ENERGY_BOX_1    1192244.3720    1271833.6057    -79589.2338     0.0000          0.0000          0.0000          0.0000          0.0000          0.0000          0.0000          

STAT_BOX_1      528             

Steps/sec. : 2285.3235
MOVE_BOX_0      182614          92383           50.5892         1.9693          90896           49717           54.6966         3.1416          0               0               0.0000          317902          124507          39.1652         910000          

ENERGY_BOX_0    40084.4517      51016.2170      -3349.5648      -7013.3385      -568.8620       0.0000          0.0000          0.0000          0.0000          0.0000          

STAT_BOX_0      20              

MOVE_BOX_1      318588          124525          39.0865         910000          

ENERGY_BOX_1    1344649.5770    1424600.3751    -79950.7981     0.0000          0.0000          0.0000          0.0000          0.0000          0.0000          0.0000          

STAT_BOX_1      582             

Steps/sec. : 2344.9629
MOVE_BOX_0      184601          93366           50.5772         1.5397          91934           50347           54.7643         3.1416          0               0               0.0000          321403          126169          39.2557         920000          

ENERGY_BOX_0    64185.4187      98972.5984      -5774.4895      -27065.7599     -1946.9303      0.0000          0.0000          0.0000          0.0000          0.0000          

STAT_BOX_0      37              

MOVE_BOX_1      322062          126204          39.1862         920000          

ENERGY_BOX_1    1292154.3173    1371291.0817    -79136.7644     0.0000          0.0000          0.0000          0.0000          0.0000          0.0000          0.0000          

STAT_BOX_1      565             

Steps/sec. : 2419.2789
MOVE_BOX_0      186606          94408           50.5922         1.9852          92967           50967           54.8227         3.1416          0               0               0.0000          324897          127825          39.3432         930000          

ENERGY_BOX_0    79775.6341      125128.4888     -5882.8788      -36055.3816     -3414.5943      0.0000          0.0000          0.0000          0.0000          0.0000          

STAT_BOX_0      49              

MOVE_BOX_1      325530          127872          39.2812         930000          

ENERGY_BOX_1    1280826.6645    1358578.8023    -77752.1378     0.0000          0.0000          0.0000          0.0000          0.0000          0.0000          0.0000          

STAT_BOX_1      553             

Steps/sec. : 2381.8978
MOVE_BOX_0      188622          95438           50.5975         2.0305          93948           51553           54.8740         2.9603          0               0               0.0000          328426          129552          39.4463         940000          

ENERGY_BOX_0    39941.2734      56951.8429      -2584.4758      -13673.7736     -752.3200       0.0000          0.0000          0.0000          0.0000          0.0000          

STAT_BOX_0      23              

MOVE_BOX_1      329004          129573          39.3834         940000          

ENERGY_BOX_1    1286886.3068    1372922.6221    -86036.3153     0.0000          0.0000          0.0000          0.0000          0.0000          0.0000          0.0000          

STAT_BOX_1      579             

Steps/sec. : 2298.6435
MOVE_BOX_0      190595          96433           50.5958         1.7225          94983           52099           54.8509         2.6258          0               0               0.0000          331917          131058          39.4852         950000          

ENERGY_BOX_0    62880.0873      97086.9579      -5839.7860      -26091.6365     -2275.4481      0.0000          0.0000          0.0000          0.0000          0.0000          

STAT_BOX_0      40              

MOVE_BOX_1      332505          131096          39.4268         950000          

ENERGY_BOX_1    1303678.2249    1385752.9788    -82074.7540     0.0000          0.0000          0.0000          0.0000          0.0000          0.0000          0.0000          

STAT_BOX_1      562             

Steps/sec. : 2109.2672
MOVE_BOX_0      192627          97473           50.6019         2.0038          95950           52689           54.9130         3.1416          0               0               0.0000          335380          132784          39.5921         960000          

ENERGY_BOX_0    46296.4598      58278.5829      -2762.1909      -8531.6091      -688.3231       0.0000          0.0000          0.0000          0.0000          0.0000          

STAT_BOX_0      22              

MOVE_BOX_1      336043          132804          39.5199         960000          

ENERGY_BOX_1    1306525.9205    1389767.4743    -83241.5538     0.0000          0.0000          0.0000          0.0000          0.0000          0.0000          0.0000          

STAT_BOX_1      580             

Steps/sec. : 2469.4657
MOVE_BOX_0      194692          98453           50.5686         1.0500          96967           53220           54.8847         1.7655          0               0               0.0000          338827          134424          39.6733         970000          

ENERGY_BOX_0    52337.6546      110835.1031     -7947.1785      -46248.2509     -4302.0191      0.0000          0.0000          0.0000          0.0000          0.0000          

STAT_BOX_0      55              

MOVE_BOX_1      339514          134477          39.6087         970000          

ENERGY_BOX_1    1263047.9384    1343995.4937    -80947.5553     0.0000          0.0000          0.0000          0.0000          0.0000          0.0000          0.0000          

STAT_BOX_1      547             

Steps/sec. : 2339.5244
MOVE_BOX_0      196770          99544           50.5890         1.4040          97958           53747           54.8674         2.8605          0               0               0.0000          342292          135948          39.7170         980000          

ENERGY_BOX_0    44430.0275      58621.8005      -3527.6902      -9911.7628      -752.3200       0.0000          0.0000          0.0000          0.0000          0.0000          

STAT_BOX_0      23              

MOVE_BOX_1      342980          135969          39.6434         980000          

ENERGY_BOX_1    1352462.6723    1438942.4242    -86479.7520     0.0000          0.0000          0.0000          0.0000          0.0000          0.0000          0.0000          

STAT_BOX_1      579             

Steps/sec. : 2158.7171
MOVE_BOX_0      198765          100570          50.5974         1.5825          98957           54358           54.9309         3.0528          0               0               0.0000          345787          137670          39.8135         990000          

ENERGY_BOX_0    72251.1580      104353.0919     -5645.3054      -24065.9859     -2390.6427      0.0000          0.0000          0.0000          0.0000          0.0000          

STAT_BOX_0      41              

MOVE_BOX_1      346491          137709          39.7439         990000          

ENERGY_BOX_1    1276694.4636    1359855.8857    -83161.4220     0.0000          0.0000          0.0000          0.0000          0.0000          0.0000          0.0000          

STAT_BOX_1      561             

Steps/sec. : 2405.5971
MOVE_BOX_0      200722          101636          50.6352         2.9575          99980           54945           54.9560         3.1416          0               0               0.0000          349321          139365          39.8960         1000000         

ENERGY_BOX_0    33259.3272      41426.0912      -2195.7387      -5457.6273      -513.3980       0.0000          0.0000          0.0000          0.0000          0.0000          

STAT_BOX_0      19              

MOVE_BOX_1      349977          139382          39.8260         1000000         

ENERGY_BOX_1    1372061.2525    1452952.1233    -80890.8709     0.0000          0.0000          0.0000          0.0000          0.0000          0.0000          0.0000          

STAT_BOX_1      583             

Simulation Time (total): 369.0803sec.
GOMC Serial Version 1.9
Completed at: Fri Dec  9 11:50:28 2016
On hostname: potoff39.eng.wayne.edu
