GOMC Serial Version 1.9
Started at: Sat Apr 22 21:44:38 2017
On hostname: potoff39.eng.wayne.edu

Total number of CPUs: 4
Total number of CPUs available: 4
Model name: Intel(R) Core(TM) i5-2500K CPU @ 3.30GHz

System name: Linux
Release: 2.6.32-642.4.2.el6.x86_64
Version: #1 SMP Tue Aug 23 19:58:13 UTC 2016
Kernel Architecture: x86_64
Total Ram: 7856.3MB
Used Ram: 5236.5MB
Working in the current directory /home3/soroush/Desktop/validation/GOMC_Examples/GCMC/hexane/run2a_bridge

------------------------------------------------------
This code was compiled to support the grand canonical ensemble.
------------------------------------------------------

REMINDER: EXOTIC force field has been selected!
Temperature of system has been set to 510.00000 K 
Warning: Pressure calculation is turned off.
By default intra box swap frequency has been set to zero
Warning: Electrostatic energy would not be calculated!
Reading from Exotic Parameter File file: ./../../../common/Par_Mie_Alkane_Exotic.inp
Finished reading Exotic Parameter File file: ./../../../common/Par_Mie_Alkane_Exotic.inp
Reading from Box 1 PDB coordinate file file: ./STEP3_START_C6P_vap_BOX_0.pdb
Finished reading Box 1 PDB coordinate file file: ./STEP3_START_C6P_vap_BOX_0.pdb
Reading from Box 2 PDB coordinate file file: ./STEP3_START_C6P_reservoir_BOX_1.pdb
Finished reading Box 2 PDB coordinate file file: ./STEP3_START_C6P_reservoir_BOX_1.pdb
Random number seed: 3722515727

Molecules in PSF:
Molecule Kind: C6P
Idx	name	type	charge	mass
0	C1	CH3	0.0000	15.0350
1	C2	CH2	0.0000	14.0270
2	C3	CH2	0.0000	14.0270
3	C4	CH2	0.0000	14.0270
4	C5	CH2	0.0000	14.0270
5	C6	CH3	0.0000	15.0350
Bonds:
[0 1] [1 2] [2 3] [3 4] [4 5] 
Angles:
[0 1 2] [1 2 3] [2 3 4] [3 4 5] 
Dihedrals:
[0 1 2 3] [1 2 3 4] [2 3 4 5] 

REMINDER! 1-3 and 1-4 Interaction is OFF
Minimum coordinates in box 0: x =    1.272, y =   22.180, z =   27.498
Maximum coordinates in box 0: x =    4.083, y =   34.000, z =   33.921
Minimum coordinates in box 1: x =    1.000, y =    1.000, z =    1.000
Maximum coordinates in box 1: x =   34.000, y =   34.000, z =   34.000

###############################################################################
########################## INITIAL SIMULATION ENERGY ##########################

ETITLE:     STEP           TOTAL        INTRA(B)       INTRA(NB)       INTER(LJ)             LRC     TOTAL_ELECT            REAL           RECIP            SELF            CORR

ENER_0:        0       -347.5427          0.0201       -196.1767       -145.6975         -5.6886          0.0000          0.0000          0.0000          0.0000         -0.0000

ENER_1:        0     -58795.0322         22.1171     -58817.1493          0.0000          0.0000          0.0000          0.0000          0.0000          0.0000         -0.0000

###############################################################################
############################# STARTING SIMULATION #############################

MTITLE:     STEP          DISTRY       DISACCEPT      DISACCEPT%          DISMAX          ROTATE       ROTACCEPT      ROTACCEPT%          ROTMAX       INTRASWAP       INTACCEPT      INTACCEPT%        TRANSFER      TRANACCEPT     TRANACCEPT%

ETITLE:     STEP           TOTAL        INTRA(B)       INTRA(NB)       INTER(LJ)             LRC     TOTAL_ELECT            REAL           RECIP            SELF            CORR

STITLE:     STEP        TOTALMOL

Printed combined psf to file C6P_510_00_K_u_4140_r1a_merged.psf
MOVE_0:    10000            2004             854         42.6148          1.5082             963             623         64.6937          8.7961               0               0          0.0000            3465            1661         47.9365

ENER_0:    10000      52778.1492      90806.8939      -5974.0684     -29664.0336      -2390.6427          0.0000          0.0000          0.0000          0.0000          0.0000

STAT_0:    10000              41

MOVE_1:    10000            3568            1700         47.6457

ENER_1:    10000    1189424.4428    1270281.4605     -80857.0177          0.0000          0.0000          0.0000          0.0000          0.0000          0.0000          0.0000

STAT_1:    10000             561

Steps/sec. : 4372.0456
MOVE_0:    20000            3993            1847         46.2559          1.2965            1994            1241         62.2367         16.3068               0               0          0.0000            6916            3376         48.8143

ENER_0:    20000      80209.1135     173391.7210      -8619.0189     -77792.7083      -6770.8803          0.0000          0.0000          0.0000          0.0000          0.0000

STAT_0:    20000              69

MOVE_1:    20000            7097            3443         48.5135

ENER_1:    20000    1234187.6075    1312557.6676     -78370.0601          0.0000          0.0000          0.0000          0.0000          0.0000          0.0000          0.0000

STAT_1:    20000             533

Steps/sec. : 4321.3829
MOVE_0:    30000            5997            2897         48.3075          1.7222            3010            1726         57.3422          3.0929               0               0          0.0000           10421            4649         44.6118

ENER_0:    30000      43139.6601      62269.5527      -4454.3085     -13560.6145      -1114.9696          0.0000          0.0000          0.0000          0.0000          0.0000

STAT_0:    30000              28

MOVE_1:    30000           10572            4675         44.2206

ENER_1:    30000    1312608.7230    1392091.2854     -79482.5624          0.0000          0.0000          0.0000          0.0000          0.0000          0.0000          0.0000

STAT_1:    30000             574

Steps/sec. : 2775.9464
MOVE_0:    40000            7988            3906         48.8983          1.6002            4063            2337         57.5191         10.6112               0               0          0.0000           13891            6300         45.3531

ENER_0:    40000      77953.2865     119638.8928      -5893.6312     -32650.4345      -3141.5406          0.0000          0.0000          0.0000          0.0000          0.0000

STAT_0:    40000              47

MOVE_1:    40000           14058            6345         45.1344

ENER_1:    40000    1289892.1118    1369555.0830     -79662.9713          0.0000          0.0000          0.0000          0.0000          0.0000          0.0000          0.0000

STAT_1:    40000             555

Steps/sec. : 4085.0175
MOVE_0:    50000            9938            4960         49.9094          2.7220            5100            2987         58.5686         17.5000               0               0          0.0000           17466            8027         45.9579

ENER_0:    50000      79668.2226     123409.2853      -7453.0523     -32588.9850      -3699.0253          0.0000          0.0000          0.0000          0.0000          0.0000

STAT_0:    50000              51

MOVE_1:    50000           17496            8076         46.1591

ENER_1:    50000    1272241.2197    1353332.4477     -81091.2281          0.0000          0.0000          0.0000          0.0000          0.0000          0.0000          0.0000

STAT_1:    50000             551

Steps/sec. : 4441.0059
MOVE_0:    60000           11996            5921         49.3581          1.0684            6124            3545         57.8870         12.6887               0               0          0.0000           20880            9619         46.0680

ENER_0:    60000      67817.2080     151922.1923      -9406.3775     -69231.8427      -5466.7641          0.0000          0.0000          0.0000          0.0000          0.0000

STAT_0:    60000              62

MOVE_1:    60000           21000            9679         46.0905

ENER_1:    60000    1237876.9722    1315766.2527     -77889.2805          0.0000          0.0000          0.0000          0.0000          0.0000          0.0000          0.0000

STAT_1:    60000             540

Steps/sec. : 3859.2309
MOVE_0:    70000           14008            7013         50.0642          2.1535            7120            4110         57.7247         17.5000               0               0          0.0000           24429           11261         46.0969

ENER_0:    70000      65094.7274      87200.1394      -4440.4300     -16208.6952      -1456.2868          0.0000          0.0000          0.0000          0.0000          0.0000

STAT_0:    70000              32

MOVE_1:    70000           24443           11291         46.1932

ENER_1:    70000    1307946.0260    1391277.5195     -83331.4935          0.0000          0.0000          0.0000          0.0000          0.0000          0.0000          0.0000

STAT_1:    70000             570

Steps/sec. : 4004.1417
MOVE_0:    80000           16072            8069         50.2053          2.6780            8121            4727         58.2071         17.5000               0               0          0.0000           27857           13027         46.7638

ENER_0:    80000      65152.9294      78352.5931      -4050.5173      -8112.3954      -1036.7510          0.0000          0.0000          0.0000          0.0000          0.0000

STAT_0:    80000              27

MOVE_1:    80000           27950           13052         46.6977

ENER_1:    80000    1322564.9311    1402414.4694     -79849.5383          0.0000          0.0000          0.0000          0.0000          0.0000          0.0000          0.0000

STAT_1:    80000             575

Steps/sec. : 4653.3118
MOVE_0:    90000           18017            9013         50.0250          1.6154            9129            5323         58.3087         17.5000               0               0          0.0000           31355           14761         47.0770

ENER_0:    90000      71293.5683     113490.3189      -7109.3200     -32334.1384      -2753.2922          0.0000          0.0000          0.0000          0.0000          0.0000

STAT_0:    90000              44

MOVE_1:    90000           31499           14803         46.9951

ENER_1:    90000    1264811.2112    1344030.1175     -79218.9063          0.0000          0.0000          0.0000          0.0000          0.0000          0.0000          0.0000

STAT_1:    90000             558

Steps/sec. : 4182.8947
MOVE_0:   100000           20003           10013         50.0575          1.3009           10087            5908         58.5704         17.5000               0               0          0.0000           34872           16493         47.2958

ENER_0:   100000      81944.1961     122927.0420      -7141.6793     -30831.8865      -3009.2801          0.0000          0.0000          0.0000          0.0000          0.0000

STAT_0:   100000              46

MOVE_1:   100000           35038           16537         47.1973

ENER_1:   100000    1268806.5047    1349937.8662     -81131.3615          0.0000          0.0000          0.0000          0.0000          0.0000          0.0000          0.0000

STAT_1:   100000             556

Steps/sec. : 4160.7930
MOVE_0:   110000           21983           11016         50.1114          1.3796           11077            6398         57.7593         12.0886               0               0          0.0000           38376           18065         47.0737

ENER_0:   110000      73213.8937     105960.6364      -5272.6081     -25527.2044      -1946.9303          0.0000          0.0000          0.0000          0.0000          0.0000

STAT_0:   110000              37

MOVE_1:   110000           38564           18100         46.9350

ENER_1:   110000    1327342.0321    1412989.9310     -85647.8989          0.0000          0.0000          0.0000          0.0000          0.0000          0.0000          0.0000

STAT_1:   110000             565

Steps/sec. : 3633.1508
MOVE_0:   120000           24002           12015         50.0583          0.8980           12117            6925         57.1511          6.4377               0               0          0.0000           41819           19585         46.8328

ENER_0:   120000      73365.5650     141813.5973      -9314.0711     -54183.4394      -4950.5218          0.0000          0.0000          0.0000          0.0000          0.0000

STAT_0:   120000              59

MOVE_1:   120000           42062           19642         46.6977

ENER_1:   120000    1230690.9299    1305565.9551     -74875.0252          0.0000          0.0000          0.0000          0.0000          0.0000          0.0000          0.0000

STAT_1:   120000             543

Steps/sec. : 3626.8678
MOVE_0:   130000           25914           12980         50.0888          0.8297           13166            7452         56.6003          5.6221               0               0          0.0000           45282           21052         46.4909

ENER_0:   130000      91265.6791     190430.3044      -8278.7940     -83098.1101      -7787.7212          0.0000          0.0000          0.0000          0.0000          0.0000

STAT_0:   130000              74

MOVE_1:   130000           45638           21124         46.2860

ENER_1:   130000    1229219.7468    1305476.6084     -76256.8617          0.0000          0.0000          0.0000          0.0000          0.0000          0.0000          0.0000

STAT_1:   130000             528

Steps/sec. : 3295.9114
MOVE_0:   140000           27955           14002         50.0876          0.7793           14142            7868         55.6357          0.7985               0               0          0.0000           48784           22096         45.2935

ENER_0:   140000      52084.3680     194046.0969     -11466.4418    -120220.2167     -10275.0704          0.0000          0.0000          0.0000          0.0000          0.0000

STAT_0:   140000              85

MOVE_1:   140000           49119           22179         45.1536

ENER_1:   140000    1196655.0424    1270604.4162     -73949.3738          0.0000          0.0000          0.0000          0.0000          0.0000          0.0000          0.0000

STAT_1:   140000             517

Steps/sec. : 2312.2398
MOVE_0:   150000           29999           15039         50.1317          0.8883           15098            8375         55.4709          1.3766               0               0          0.0000           52289           23331         44.6193

ENER_0:   150000      91139.1606     211316.3711     -12094.7979     -98980.6202      -9101.7925          0.0000          0.0000          0.0000          0.0000          0.0000

STAT_0:   150000              80

MOVE_1:   150000           52614           23409         44.4920

ENER_1:   150000    1183233.3327    1258270.5504     -75037.2177          0.0000          0.0000          0.0000          0.0000          0.0000          0.0000          0.0000

STAT_1:   150000             522

Steps/sec. : 2564.5694
MOVE_0:   160000           32007           16060         50.1765          0.8926           16083            8913         55.4188          2.8262               0               0          0.0000           55764           24849         44.5610

ENER_0:   160000      81407.5609     159637.2077      -9093.2243     -63127.8173      -6008.6052          0.0000          0.0000          0.0000          0.0000          0.0000

STAT_0:   160000              65

MOVE_1:   160000           56146           24912         44.3700

ENER_1:   160000    1238460.9156    1319404.4285     -80943.5129          0.0000          0.0000          0.0000          0.0000          0.0000          0.0000          0.0000

STAT_1:   160000             537

Steps/sec. : 3286.9371
MOVE_0:   170000           33990           17174         50.5266          2.6915           17113            9497         55.4958          9.3903               0               0          0.0000           59250           26551         44.8118

ENER_0:   170000      55869.3230      75332.3466      -4509.6379     -13838.4162      -1114.9696          0.0000          0.0000          0.0000          0.0000          0.0000

STAT_0:   170000              28

MOVE_1:   170000           59647           26577         44.5571

ENER_1:   170000    1332412.3067    1413056.0916     -80643.7849          0.0000          0.0000          0.0000          0.0000          0.0000          0.0000          0.0000

STAT_1:   170000             574

Steps/sec. : 4068.4411
MOVE_0:   180000           35998           18117         50.3278          1.2719           18070           10083         55.7997         14.1228               0               0          0.0000           62757           28257         45.0261

ENER_0:   180000      75935.7417     131421.6459      -7247.4843     -44392.9125      -3845.5073          0.0000          0.0000          0.0000          0.0000          0.0000

STAT_0:   180000              52

MOVE_1:   180000           63175           28307         44.8073

ENER_1:   180000    1300245.4607    1372474.9186     -72229.4580          0.0000          0.0000          0.0000          0.0000          0.0000          0.0000          0.0000

STAT_1:   180000             550

Steps/sec. : 4182.2666
MOVE_0:   190000           38039           19218         50.5218          2.3256           19060           10658         55.9182         17.5000               0               0          0.0000           66236           29952         45.2201

ENER_0:   190000      48907.6431      68400.5926      -4753.9838     -13542.9333      -1196.0324          0.0000          0.0000          0.0000          0.0000          0.0000

STAT_0:   190000              29

MOVE_1:   190000           66665           29979         44.9696

ENER_1:   190000    1307077.0134    1391508.5538     -84431.5403          0.0000          0.0000          0.0000          0.0000          0.0000          0.0000          0.0000

STAT_1:   190000             573

Steps/sec. : 3945.5453
MOVE_0:   200000           40090           20197         50.3791          1.3088           20102           11235         55.8900         17.5000               0               0          0.0000           69698           31499         45.1935

ENER_0:   200000      55007.2078      84686.3029      -5207.1119     -22923.2563      -1548.7269          0.0000          0.0000          0.0000          0.0000          0.0000

STAT_0:   200000              33

MOVE_1:   200000           70110           31530         44.9722

ENER_1:   200000    1281533.6414    1370081.1175     -88547.4761          0.0000          0.0000          0.0000          0.0000          0.0000          0.0000          0.0000

STAT_1:   200000             569

Steps/sec. : 3773.1845
MOVE_0:   210000           42093           21239         50.4573          1.8595           21097           11835         56.0980         17.5000               0               0          0.0000           73225           33197         45.3356

ENER_0:   210000      63930.5064     101733.1411      -6761.5950     -28411.4750      -2629.5647          0.0000          0.0000          0.0000          0.0000          0.0000

STAT_0:   210000              43

MOVE_1:   210000           73585           33238         45.1695

ENER_1:   210000    1232851.5498    1319354.7914     -86503.2416          0.0000          0.0000          0.0000          0.0000          0.0000          0.0000          0.0000

STAT_1:   210000             559

Steps/sec. : 4300.2320
MOVE_0:   220000           44065           22215         50.4142          1.2703           22099           12288         55.6043          2.5473               0               0          0.0000           76778           34658         45.1405

ENER_0:   220000      59276.8512      97093.1328      -5696.5234     -29611.0766      -2508.6815          0.0000          0.0000          0.0000          0.0000          0.0000

STAT_0:   220000              42

MOVE_1:   220000           77058           34698         45.0284

ENER_1:   220000    1271716.6948    1355965.6374     -84248.9425          0.0000          0.0000          0.0000          0.0000          0.0000          0.0000          0.0000

STAT_1:   220000             560

Steps/sec. : 3254.0115
MOVE_0:   230000           46105           23271         50.4739          1.7077           23127           12870         55.6492          8.4698               0               0          0.0000           80200           36296         45.2569

ENER_0:   230000      53764.0441      79926.8738      -4612.6110     -19808.0787      -1742.1400          0.0000          0.0000          0.0000          0.0000          0.0000

STAT_0:   230000              35

MOVE_1:   230000           80568           36329         45.0911

ENER_1:   230000    1307279.2027    1391698.4929     -84419.2903          0.0000          0.0000          0.0000          0.0000          0.0000          0.0000          0.0000

STAT_1:   230000             567

Steps/sec. : 3884.5360
MOVE_0:   240000           48109           24227         50.3586          0.9120           24162           13452         55.6742         11.9325               0               0          0.0000           83701           37923         45.3077

ENER_0:   240000      67643.2164     142413.7678      -9792.6649     -58969.2813      -6008.6052          0.0000          0.0000          0.0000          0.0000          0.0000

STAT_0:   240000              65

MOVE_1:   240000           84028           37986         45.2064

ENER_1:   240000    1244950.3033    1324448.4239     -79498.1206          0.0000          0.0000          0.0000          0.0000          0.0000          0.0000          0.0000

STAT_1:   240000             537

Steps/sec. : 3835.5339
MOVE_0:   250000           50131           25207         50.2823          0.6435           25154           13842         55.0290          0.8915               0               0          0.0000           87137           39105         44.8776

ENER_0:   250000      73361.9413     224959.9988     -14377.7571    -124920.0811     -12300.2192          0.0000          0.0000          0.0000          0.0000          0.0000

STAT_0:   250000              93

MOVE_1:   250000           87578           39196         44.7555

ENER_1:   250000    1152058.9790    1229296.9273     -77237.9483          0.0000          0.0000          0.0000          0.0000          0.0000          0.0000          0.0000

STAT_1:   250000             509

Steps/sec. : 2550.8362
MOVE_0:   260000           52216           26255         50.2815          0.6283           26127           14319         54.8054          0.7001               0               0          0.0000           90561           40071         44.2475

ENER_0:   260000      46479.2212     235855.8888     -15810.9840    -158769.5822     -14796.1014          0.0000          0.0000          0.0000          0.0000          0.0000

STAT_0:   260000             102

MOVE_1:   260000           91096           40171         44.0974

ENER_1:   260000    1168925.6694    1234733.0415     -65807.3721          0.0000          0.0000          0.0000          0.0000          0.0000          0.0000          0.0000

STAT_1:   260000             500

Steps/sec. : 2217.9859
MOVE_0:   270000           54204           27310         50.3837          1.0894           27104           14849         54.7853          1.4427               0               0          0.0000           94115           41265         43.8453

ENER_0:   270000      82731.7869     134959.0756      -7460.2289     -41211.6720      -3555.3877          0.0000          0.0000          0.0000          0.0000          0.0000

STAT_0:   270000              50

MOVE_1:   270000           94577           41313         43.6819

ENER_1:   270000    1266046.5967    1346736.9418     -80690.3451          0.0000          0.0000          0.0000          0.0000          0.0000          0.0000          0.0000

STAT_1:   270000             552

Steps/sec. : 2437.7734
MOVE_0:   280000           56232           28330         50.3806          0.9402           28134           15400         54.7380          2.4111               0               0          0.0000           97648           42741         43.7705

ENER_0:   280000      71099.0063     138522.4528      -8788.5643     -54175.0038      -4459.8783          0.0000          0.0000          0.0000          0.0000          0.0000

STAT_0:   280000              56

MOVE_1:   280000           97986           42795         43.6746

ENER_1:   280000    1276331.0373    1354819.3637     -78488.3264          0.0000          0.0000          0.0000          0.0000          0.0000          0.0000          0.0000

STAT_1:   280000             546

Steps/sec. : 3452.1339
MOVE_0:   290000           58271           29450         50.5397          2.1893           29109           15944         54.7734          6.3919               0               0          0.0000          101106           44293         43.8085

ENER_0:   290000      50244.9583      80659.0801      -5870.4332     -22700.5757      -1843.1130          0.0000          0.0000          0.0000          0.0000          0.0000

STAT_0:   290000              36

MOVE_1:   290000          101514           44327         43.6659

ENER_1:   290000    1277518.9984    1358921.0002     -81402.0018          0.0000          0.0000          0.0000          0.0000          0.0000          0.0000          0.0000

STAT_1:   290000             566

Steps/sec. : 3663.2036
MOVE_0:   300000           60247           30443         50.5303          1.5661           30090           16491         54.8056         17.2178               0               0          0.0000          104612           45915         43.8908

ENER_0:   300000      57038.9470      70485.9001      -3877.1646      -8680.9416       -888.8469          0.0000          0.0000          0.0000          0.0000          0.0000

STAT_0:   300000              25

MOVE_1:   300000          105051           45938         43.7292

ENER_1:   300000    1314453.1842    1395505.6010     -81052.4168          0.0000          0.0000          0.0000          0.0000          0.0000          0.0000          0.0000

STAT_1:   300000             577

Steps/sec. : 3878.0778
MOVE_0:   310000           62278           31457         50.5106          1.3954           31072           17024         54.7889         16.7596               0               0          0.0000          108038           47556         44.0178

ENER_0:   310000      87277.5914     160751.4698      -9329.1370     -58677.9774      -5466.7641          0.0000          0.0000          0.0000          0.0000          0.0000

STAT_0:   310000              62

MOVE_1:   310000          108612           47616         43.8405

ENER_1:   310000    1202169.7286    1283558.7213     -81388.9926          0.0000          0.0000          0.0000          0.0000          0.0000          0.0000          0.0000

STAT_1:   310000             540

Steps/sec. : 4082.9843
MOVE_0:   320000           64233           32424         50.4787          1.0745           32073           17516         54.6129          6.6383               0               0          0.0000          111486           49103         44.0441

ENER_0:   320000      58975.4243      89592.9468      -5223.5800     -23340.3506      -2053.5919          0.0000          0.0000          0.0000          0.0000          0.0000

STAT_0:   320000              38

MOVE_1:   320000          112208           49139         43.7928

ENER_1:   320000    1276253.2912    1360472.4767     -84219.1855          0.0000          0.0000          0.0000          0.0000          0.0000          0.0000          0.0000

STAT_1:   320000             564

Steps/sec. : 3350.8662
MOVE_0:   330000           66210           33495         50.5890          2.2787           33081           18075         54.6386         16.9585               0               0          0.0000          114934           50751         44.1566

ENER_0:   330000      64417.1882      88663.6234      -4547.9606     -18242.1878      -1456.2868          0.0000          0.0000          0.0000          0.0000          0.0000

STAT_0:   330000              32

MOVE_1:   330000          115775           50781         43.8618

ENER_1:   330000    1328897.3233    1410829.8945     -81932.5712          0.0000          0.0000          0.0000          0.0000          0.0000          0.0000          0.0000

STAT_1:   330000             570

Steps/sec. : 4003.7923
MOVE_0:   340000           68171           34470         50.5640          1.5589           34067           18640         54.7157         16.8636               0               0          0.0000          118558           52435         44.2273

ENER_0:   340000      71761.4888     114064.7718      -6218.8965     -32942.8461      -3141.5406          0.0000          0.0000          0.0000          0.0000          0.0000

STAT_0:   340000              47

MOVE_1:   340000          119204           52480         44.0254

ENER_1:   340000    1295574.7380    1377450.9508     -81876.2128          0.0000          0.0000          0.0000          0.0000          0.0000          0.0000          0.0000

STAT_1:   340000             555

Steps/sec. : 4220.0556
MOVE_0:   350000           70184           35545         50.6454          2.8862           35048           19267         54.9732         17.5000               0               0          0.0000          122113           54233         44.4121

ENER_0:   350000      44277.1132      59517.6150      -3741.5176     -10746.6641       -752.3200          0.0000          0.0000          0.0000          0.0000          0.0000

STAT_0:   350000              23

MOVE_1:   350000          122655           54254         44.2330

ENER_1:   350000    1318826.7419    1402607.0597     -83780.3178          0.0000          0.0000          0.0000          0.0000          0.0000          0.0000          0.0000

STAT_1:   350000             579

Steps/sec. : 4657.8179
MOVE_0:   360000           72206           36449         50.4792          0.7957           36038           19696         54.6534          1.8305               0               0          0.0000          125586           55619         44.2876

ENER_0:   360000      66767.7794     204530.3134     -12624.2070    -113873.4368     -11264.8903          0.0000          0.0000          0.0000          0.0000          0.0000

STAT_0:   360000              89

MOVE_1:   360000          126170           55706         44.1515

ENER_1:   360000    1205963.7209    1278128.6989     -72164.9780          0.0000          0.0000          0.0000          0.0000          0.0000          0.0000          0.0000

STAT_1:   360000             513

Steps/sec. : 3071.6871
MOVE_0:   370000           74183           37517         50.5736          1.5392           37074           20301         54.7581          8.3117               0               0          0.0000          129086           57330         44.4123

ENER_0:   370000      71567.5318     129395.7634      -6525.5782     -47457.1460      -3845.5073          0.0000          0.0000          0.0000          0.0000          0.0000

STAT_0:   370000              52

MOVE_1:   370000          129657           57380         44.2552

ENER_1:   370000    1236242.1834    1315765.0364     -79522.8531          0.0000          0.0000          0.0000          0.0000          0.0000          0.0000          0.0000

STAT_1:   370000             550

Steps/sec. : 4037.8312
MOVE_0:   380000           76155           38458         50.4996          0.8331           38084           20739         54.4559          1.6281               0               0          0.0000          132569           58615         44.2147

ENER_0:   380000      76570.0305     141553.4239      -8899.3358     -51463.4757      -4620.5818          0.0000          0.0000          0.0000          0.0000          0.0000

STAT_0:   380000              57

MOVE_1:   380000          133192           58670         44.0492

ENER_1:   380000    1221622.4423    1298246.9467     -76624.5044          0.0000          0.0000          0.0000          0.0000          0.0000          0.0000          0.0000

STAT_1:   380000             545

Steps/sec. : 2733.1881
MOVE_0:   390000           78136           39546         50.6118          1.8450           39090           21323         54.5485          6.8195               0               0          0.0000          136065           60267         44.2928

ENER_0:   390000      50434.3791      63747.2973      -3942.3190      -8409.2224       -961.3768          0.0000          0.0000          0.0000          0.0000          0.0000

STAT_0:   390000              26

MOVE_1:   390000          136709           60291         44.1017

ENER_1:   390000    1295052.1640    1372421.3566     -77369.1927          0.0000          0.0000          0.0000          0.0000          0.0000          0.0000          0.0000

STAT_1:   390000             576

Steps/sec. : 4104.6137
MOVE_0:   400000           80150           40575         50.6238          1.9906           40072           21934         54.7365         17.5000               0               0          0.0000          139518           61960         44.4100

ENER_0:   400000      62229.2724      92582.2852      -5936.7189     -22140.8458      -2275.4481          0.0000          0.0000          0.0000          0.0000          0.0000

STAT_0:   400000              40

MOVE_1:   400000          140260           61998         44.2022

ENER_1:   400000    1259420.9579    1338637.7978     -79216.8400          0.0000          0.0000          0.0000          0.0000          0.0000          0.0000          0.0000

STAT_1:   400000             562

Steps/sec. : 4235.7175
MOVE_0:   410000           82088           41537         50.6006          1.5795           41078           22522         54.8274         17.5000               0               0          0.0000          143002           63634         44.4987

ENER_0:   410000      71580.4270     120708.4674      -7161.6139     -38411.0388      -3555.3877          0.0000          0.0000          0.0000          0.0000          0.0000

STAT_0:   410000              50

MOVE_1:   410000          143832           63682         44.2753

ENER_1:   410000    1259780.0559    1338286.6314     -78506.5755          0.0000          0.0000          0.0000          0.0000          0.0000          0.0000          0.0000

STAT_1:   410000             552

Steps/sec. : 3952.1286
MOVE_0:   420000           84068           42529         50.5888          1.4551           42107           22961         54.5301          2.4867               0               0          0.0000          146473           65049         44.4102

ENER_0:   420000      43385.2237      58774.8990      -3221.5290     -11479.8233       -688.3231          0.0000          0.0000          0.0000          0.0000          0.0000

STAT_0:   420000              22

MOVE_1:   420000          147352           65069         44.1589

ENER_1:   420000    1370047.0108    1454207.7989     -84160.7881          0.0000          0.0000          0.0000          0.0000          0.0000          0.0000          0.0000

STAT_1:   420000             580

Steps/sec. : 3010.6419
MOVE_0:   430000           86072           43577         50.6285          1.8588           43110           23507         54.5280          5.0214               0               0          0.0000          149930           66676         44.4714

ENER_0:   430000      48008.0538      64274.4509      -4714.2842     -10272.1733      -1279.9396          0.0000          0.0000          0.0000          0.0000          0.0000

STAT_0:   430000              30

MOVE_1:   430000          150888           66704         44.2076

ENER_1:   430000    1341948.1407    1427939.2432     -85991.1025          0.0000          0.0000          0.0000          0.0000          0.0000          0.0000          0.0000

STAT_1:   430000             572

Steps/sec. : 3841.1351
MOVE_0:   440000           88118           44560         50.5686          0.9612           44123           24085         54.5860          8.6813               0               0          0.0000          153406           68321         44.5361

ENER_0:   440000      69962.9379     162049.2464     -10071.4056     -75819.9954      -6194.9075          0.0000          0.0000          0.0000          0.0000          0.0000

STAT_0:   440000              66

MOVE_1:   440000          154353           68385         44.3043

ENER_1:   440000    1174149.7643    1251052.2501     -76902.4858          0.0000          0.0000          0.0000          0.0000          0.0000          0.0000          0.0000

STAT_1:   440000             536

Steps/sec. : 4062.6938
MOVE_0:   450000           90149           45624         50.6095          1.3766           45180           24578         54.4002          2.2078               0               0          0.0000          156838           69452         44.2826

ENER_0:   450000      37257.7167      47551.0179      -2734.8808      -7045.0225       -513.3980          0.0000          0.0000          0.0000          0.0000          0.0000

STAT_0:   450000              19

MOVE_1:   450000          157833           69469         44.0142

ENER_1:   450000    1300491.3835    1382558.0733     -82066.6897          0.0000          0.0000          0.0000          0.0000          0.0000          0.0000          0.0000

STAT_1:   450000             583

Steps/sec. : 2453.3917
MOVE_0:   460000           92138           46669         50.6512          1.6959           46206           25117         54.3587          3.1749               0               0          0.0000          160333           71078         44.3315

ENER_0:   460000      44521.1070      50839.1090      -2337.3745      -3519.8492       -460.7782          0.0000          0.0000          0.0000          0.0000          0.0000

STAT_0:   460000              18

MOVE_1:   460000          161323           71094         44.0694

ENER_1:   460000    1359652.8784    1444277.7004     -84624.8220          0.0000          0.0000          0.0000          0.0000          0.0000          0.0000          0.0000

STAT_1:   460000             584

Steps/sec. : 3926.5671
MOVE_0:   470000           94099           47630         50.6169          1.1196           47182           25669         54.4042          9.0633               0               0          0.0000          163965           72696         44.3363

ENER_0:   470000      61747.5533     129990.8851      -7698.1249     -56550.3733      -3994.8336          0.0000          0.0000          0.0000          0.0000          0.0000

STAT_0:   470000              53

MOVE_1:   470000          164754           72747         44.1549

ENER_1:   470000    1256927.6760    1337449.9949     -80522.3189          0.0000          0.0000          0.0000          0.0000          0.0000          0.0000          0.0000

STAT_1:   470000             549

Steps/sec. : 3980.9596
MOVE_0:   480000           96090           48746         50.7295          2.9455           48146           26200         54.4178         16.1573               0               0          0.0000          167493           74246         44.3278

ENER_0:   480000      26510.9556      33917.1957      -2256.4665      -4785.7018       -364.0717          0.0000          0.0000          0.0000          0.0000          0.0000

STAT_0:   480000              16

MOVE_1:   480000          168271           74260         44.1312

ENER_1:   480000    1382006.8567    1468828.4457     -86821.5890          0.0000          0.0000          0.0000          0.0000          0.0000          0.0000          0.0000

STAT_1:   480000             586

Steps/sec. : 3621.0842
MOVE_0:   490000           98091           49718         50.6856          1.9549           49099           26813         54.6101         17.5000               0               0          0.0000          171022           75957         44.4136

ENER_0:   490000      58195.4016      94192.6234      -6279.3480     -27327.2311      -2390.6427          0.0000          0.0000          0.0000          0.0000          0.0000

STAT_0:   490000              41

MOVE_1:   490000          171788           75996         44.2382

ENER_1:   490000    1292861.0108    1372881.9414     -80020.9305          0.0000          0.0000          0.0000          0.0000          0.0000          0.0000          0.0000

STAT_1:   490000             561

Steps/sec. : 4350.6462
MOVE_0:   500000          100029           50734         50.7193          2.7830           50099           27449         54.7895         17.5000               0               0          0.0000          174616           77729         44.5142

ENER_0:   500000      52651.0700      69011.6649      -4134.7767     -11189.0671      -1036.7510          0.0000          0.0000          0.0000          0.0000          0.0000

STAT_0:   500000              27

MOVE_1:   500000          175256           77754         44.3660

ENER_1:   500000    1352204.4258    1435836.8993     -83632.4735          0.0000          0.0000          0.0000          0.0000          0.0000          0.0000          0.0000

STAT_1:   500000             575

Steps/sec. : 4412.7065
MOVE_0:   510000          101985           51649         50.6437          1.1193           51120           28004         54.7809          7.2023               0               0          0.0000          178129           79228         44.4779

ENER_0:   510000      65350.4972     126346.3729      -7835.7433     -49013.1283      -4147.0042          0.0000          0.0000          0.0000          0.0000          0.0000

STAT_0:   510000              54

MOVE_1:   510000          178766           79280         44.3485

ENER_1:   510000    1237399.5729    1316054.3656     -78654.7927          0.0000          0.0000          0.0000          0.0000          0.0000          0.0000          0.0000

STAT_1:   510000             548

Steps/sec. : 1415.0965
MOVE_0:   520000          104013           52602         50.5725          0.6019           52116           28424         54.5399          0.8838               0               0          0.0000          181554           80240         44.1962

ENER_0:   520000      88828.4360     285888.4520     -16304.7291    -163547.2105     -17208.0764          0.0000          0.0000          0.0000          0.0000          0.0000

STAT_0:   520000             110

MOVE_1:   520000          182317           80348         44.0705

ENER_1:   520000    1131916.9603    1201245.2037     -69328.2435          0.0000          0.0000          0.0000          0.0000          0.0000          0.0000          0.0000

STAT_1:   520000             492

Steps/sec. : 1158.5464
MOVE_0:   530000          105964           53593         50.5766          0.6941           53092           28912         54.4564          0.8676               0               0          0.0000          185029           81187         43.8780

ENER_0:   530000      34266.8232     241252.2427     -15337.8351    -175668.2501     -15979.3344          0.0000          0.0000          0.0000          0.0000          0.0000

STAT_0:   530000             106

MOVE_1:   530000          185915           81291         43.7248

ENER_1:   530000    1176286.4676    1243001.8188     -66715.3512          0.0000          0.0000          0.0000          0.0000          0.0000          0.0000          0.0000

STAT_1:   530000             496

Steps/sec. : 1078.6238
MOVE_0:   540000          107935           54667         50.6481          1.4994           54124           29489         54.4841          2.6687               0               0          0.0000          188554           82661         43.8394

ENER_0:   540000      64381.8639      92217.8310      -5922.1549     -19860.2203      -2053.5919          0.0000          0.0000          0.0000          0.0000          0.0000

STAT_0:   540000              38

MOVE_1:   540000          189387           82697         43.6656

ENER_1:   540000    1292650.8057    1374390.5245     -81739.7188          0.0000          0.0000          0.0000          0.0000          0.0000          0.0000          0.0000

STAT_1:   540000             564

Steps/sec. : 1263.2013
MOVE_0:   550000          109968           55725         50.6738          2.0870           55094           30094         54.6230         17.5000               0               0          0.0000          192048           84403         43.9489

ENER_0:   550000      54267.3768      82558.2080      -5208.1435     -21340.5477      -1742.1400          0.0000          0.0000          0.0000          0.0000          0.0000

STAT_0:   550000              35

MOVE_1:   550000          192890           84436         43.7742

ENER_1:   550000    1322960.4047    1405977.9520     -83017.5474          0.0000          0.0000          0.0000          0.0000          0.0000          0.0000          0.0000

STAT_1:   550000             567

Steps/sec. : 1415.3550
MOVE_0:   560000          111934           56642         50.6030          0.9476           56095           30515         54.3988          1.8310               0               0          0.0000          195539           85709         43.8322

ENER_0:   560000      43207.2804      63775.6580      -4665.6337     -14536.0529      -1366.6910          0.0000          0.0000          0.0000          0.0000          0.0000

STAT_0:   560000              31

MOVE_1:   560000          196432           85738         43.6477

ENER_1:   560000    1326192.8537    1410903.1181     -84710.2644          0.0000          0.0000          0.0000          0.0000          0.0000          0.0000          0.0000

STAT_1:   560000             571

Steps/sec. : 1269.4733
MOVE_0:   570000          113983           57715         50.6347          0.8862           57085           31028         54.3540          1.5091               0               0          0.0000          199049           87144         43.7802

ENER_0:   570000      71210.5759     207914.7975     -12949.3916    -113236.5711     -10518.2589          0.0000          0.0000          0.0000          0.0000          0.0000

STAT_0:   570000              86

MOVE_1:   570000          199883           87228         43.6395

ENER_1:   570000    1186114.3507    1263643.5683     -77529.2176          0.0000          0.0000          0.0000          0.0000          0.0000          0.0000          0.0000

STAT_1:   570000             516

Steps/sec. : 1320.4104
MOVE_0:   580000          115968           58720         50.6347          0.9205           58136           31553         54.2745          1.4010               0               0          0.0000          202614           88319         43.5898

ENER_0:   580000      69430.2247     117665.8908      -7073.2203     -37885.8006      -3276.6453          0.0000          0.0000          0.0000          0.0000          0.0000

STAT_0:   580000              48

MOVE_1:   580000          203282           88365         43.4692

ENER_1:   580000    1234855.6077    1314555.9230     -79700.3153          0.0000          0.0000          0.0000          0.0000          0.0000          0.0000          0.0000

STAT_1:   580000             554

Steps/sec. : 1133.4509
MOVE_0:   590000          117943           59680         50.6007          0.5899           59099           32021         54.1820          0.8193               0               0          0.0000          206105           89740         43.5409

ENER_0:   590000      94338.7895     261140.7870     -14664.9034    -138478.7168     -13658.3773          0.0000          0.0000          0.0000          0.0000          0.0000

STAT_0:   590000              98

MOVE_1:   590000          206853           89836         43.4299

ENER_1:   590000    1167396.2232    1239519.3675     -72123.1443          0.0000          0.0000          0.0000          0.0000          0.0000          0.0000          0.0000

STAT_1:   590000             504

Steps/sec. : 1268.3748
MOVE_0:   600000          119955           60696         50.5990          0.6165           60060           32508         54.1259          0.8600               0               0          0.0000          209610           90799         43.3181

ENER_0:   600000      41920.6453     246713.2085     -16267.9929    -171316.4940     -17208.0764          0.0000          0.0000          0.0000          0.0000          0.0000

STAT_0:   600000             110

MOVE_1:   600000          210375           90907         43.2119

ENER_1:   600000    1123556.9111    1192893.6289     -69336.7178          0.0000          0.0000          0.0000          0.0000          0.0000          0.0000          0.0000

STAT_1:   600000             492

Steps/sec. : 1103.0836
MOVE_0:   610000          121920           61728         50.6299          0.9471           61065           33051         54.1243          1.4759               0               0          0.0000          213165           91757         43.0451

ENER_0:   610000      48080.8929      63479.1372      -3819.6110     -10689.7864       -888.8469          0.0000          0.0000          0.0000          0.0000          0.0000

STAT_0:   610000              25

MOVE_1:   610000          213850           91780         42.9179

ENER_1:   610000    1311791.6829    1395437.8886     -83646.2058          0.0000          0.0000          0.0000          0.0000          0.0000          0.0000          0.0000

STAT_1:   610000             577

Steps/sec. : 1086.2704
MOVE_0:   620000          123927           62712         50.6040          0.6931           62022           33532         54.0647          1.2571               0               0          0.0000          216607           93058         42.9617

ENER_0:   620000      64061.6439     207949.8990     -13312.6442    -119310.7206     -11264.8903          0.0000          0.0000          0.0000          0.0000          0.0000

STAT_0:   620000              89

MOVE_1:   620000          217444           93145         42.8363

ENER_1:   620000    1162848.4336    1239974.5107     -77126.0771          0.0000          0.0000          0.0000          0.0000          0.0000          0.0000          0.0000

STAT_1:   620000             513

Steps/sec. : 1188.5708
MOVE_0:   630000          126014           63752         50.5912          0.6406           63012           34006         53.9675          0.8118               0               0          0.0000          219995           93972         42.7155

ENER_0:   630000      56175.6559     282745.4357     -17383.8110    -190703.6414     -18482.3273          0.0000          0.0000          0.0000          0.0000          0.0000

STAT_0:   630000             114

MOVE_1:   630000          220979           94084         42.5760

ENER_1:   630000    1091644.6890    1163380.2307     -71735.5417          0.0000          0.0000          0.0000          0.0000          0.0000          0.0000          0.0000

STAT_1:   630000             488

Steps/sec. : 1072.8014
MOVE_0:   640000          127979           64744         50.5895          0.6515           63961           34480         53.9079          0.7889               0               0          0.0000          223530           94906         42.4578

ENER_0:   640000      51346.8015     238061.0504     -15246.8362    -156671.3113     -14796.1014          0.0000          0.0000          0.0000          0.0000          0.0000

STAT_0:   640000             102

MOVE_1:   640000          224530           95006         42.3133

ENER_1:   640000    1142657.5338    1214968.2668     -72310.7330          0.0000          0.0000          0.0000          0.0000          0.0000          0.0000          0.0000

STAT_1:   640000             500

Steps/sec. : 1012.6470
MOVE_0:   650000          129945           65821         50.6530          1.4999           64960           35038         53.9378          2.1010               0               0          0.0000          227077           96159         42.3464

ENER_0:   650000      43145.2763      63472.9747      -4444.7927     -14686.8733      -1196.0324          0.0000          0.0000          0.0000          0.0000          0.0000

STAT_0:   650000              29

MOVE_1:   650000          228018           96186         42.1835

ENER_1:   650000    1313884.1872    1393074.3236     -79190.1364          0.0000          0.0000          0.0000          0.0000          0.0000          0.0000          0.0000

STAT_1:   650000             573

Steps/sec. : 1216.8392
MOVE_0:   660000          131933           66773         50.6113          0.6965           65980           35532         53.8527          1.1457               0               0          0.0000          230514           97619         42.3484

ENER_0:   660000      66196.7502     207156.8870     -13859.7974    -115580.8834     -11519.4561          0.0000          0.0000          0.0000          0.0000          0.0000

STAT_0:   660000              90

MOVE_1:   660000          231573           97707         42.1927

ENER_1:   660000    1160470.1518    1235402.5296     -74932.3778          0.0000          0.0000          0.0000          0.0000          0.0000          0.0000          0.0000

STAT_1:   660000             512

Steps/sec. : 1301.3687
MOVE_0:   670000          133917           67732         50.5776          0.4839           66999           36014         53.7530          0.6287               0               0          0.0000          233935           98386         42.0570

ENER_0:   670000      63256.6600     274711.5336     -15270.4235    -178662.0775     -17522.3726          0.0000          0.0000          0.0000          0.0000          0.0000

STAT_0:   670000             111

MOVE_1:   670000          235149           98495         41.8862

ENER_1:   670000    1106498.5202    1177933.0068     -71434.4866          0.0000          0.0000          0.0000          0.0000          0.0000          0.0000          0.0000

STAT_1:   670000             491

Steps/sec. : 1036.6095
MOVE_0:   680000          135890           68747         50.5902          0.6304           67980           36530         53.7364          0.9726               0               0          0.0000          237496           99410         41.8575

ENER_0:   680000      86520.5193     220650.5298     -12236.5147    -110880.3269     -11013.1689          0.0000          0.0000          0.0000          0.0000          0.0000

STAT_0:   680000              88

MOVE_1:   680000          238634           99496         41.6940

ENER_1:   680000    1187556.7274    1264435.5617     -76878.8343          0.0000          0.0000          0.0000          0.0000          0.0000          0.0000          0.0000

STAT_1:   680000             514

Steps/sec. : 1096.5863
MOVE_0:   690000          137864           69813         50.6390          1.1938           68989           37070         53.7332          1.6667               0               0          0.0000          240968          100737         41.8051

ENER_0:   690000      44517.4864      56739.1967      -3106.5865      -8426.8008       -688.3231          0.0000          0.0000          0.0000          0.0000          0.0000

STAT_0:   690000              22

MOVE_1:   690000          242179          100757         41.6044

ENER_1:   690000    1316336.3577    1404690.7127     -88354.3550          0.0000          0.0000          0.0000          0.0000          0.0000          0.0000          0.0000

STAT_1:   690000             580

Steps/sec. : 1176.1121
MOVE_0:   700000          139833           70842         50.6619          1.6103           69996           37625         53.7531          4.0522               0               0          0.0000          244430          102385         41.8872

ENER_0:   700000      66985.6192     121615.2098      -7508.2119     -43706.7844      -3414.5943          0.0000          0.0000          0.0000          0.0000          0.0000

STAT_0:   700000              49

MOVE_1:   700000          245741          102432         41.6829

ENER_1:   700000    1248762.0802    1331367.8534     -82605.7731          0.0000          0.0000          0.0000          0.0000          0.0000          0.0000          0.0000

STAT_1:   700000             553

Steps/sec. : 1393.2882
MOVE_0:   710000          141847           71905         50.6919          2.3353           71011           38218         53.8198         13.6518               0               0          0.0000          247929          104054         41.9693

ENER_0:   710000      57390.4369      84485.8711      -5173.5202     -20277.9027      -1644.0113          0.0000          0.0000          0.0000          0.0000          0.0000

STAT_0:   710000              34

MOVE_1:   710000          249213          104086         41.7659

ENER_1:   710000    1267488.7764    1346522.2391     -79033.4626          0.0000          0.0000          0.0000          0.0000          0.0000          0.0000          0.0000

STAT_1:   710000             568

Steps/sec. : 1355.6885
MOVE_0:   720000          143832           72878         50.6688          1.6087           72033           38776         53.8309         14.0722               0               0          0.0000          251403          105684         42.0377

ENER_0:   720000      72302.8758     131808.1749      -8333.7677     -46550.9496      -4620.5818          0.0000          0.0000          0.0000          0.0000          0.0000

STAT_0:   720000              57

MOVE_1:   720000          252732          105739         41.8384

ENER_1:   720000    1258983.3192    1335979.3356     -76996.0164          0.0000          0.0000          0.0000          0.0000          0.0000          0.0000          0.0000

STAT_1:   720000             545

Steps/sec. : 1375.0256
MOVE_0:   730000          145934           73968         50.6859          1.7312           73021           39394         53.9489         16.5979               0               0          0.0000          254936          107442         42.1447

ENER_0:   730000      43537.9965      60367.3189      -4520.5082     -11272.0631      -1036.7510          0.0000          0.0000          0.0000          0.0000          0.0000

STAT_0:   730000              27

MOVE_1:   730000          256109          107467         41.9614

ENER_1:   730000    1293769.2900    1377827.2840     -84057.9940          0.0000          0.0000          0.0000          0.0000          0.0000          0.0000          0.0000

STAT_1:   730000             575

Steps/sec. : 1417.1536
MOVE_0:   740000          147911           74961         50.6798          1.3562           74006           39927         53.9510         15.5585               0               0          0.0000          258444          109035         42.1890

ENER_0:   740000      42432.5930      61176.0676      -3381.3477     -14400.7501       -961.3768          0.0000          0.0000          0.0000          0.0000          0.0000

STAT_0:   740000              26

MOVE_1:   740000          259639          109059         42.0041

ENER_1:   740000    1313738.1637    1395389.9246     -81651.7609          0.0000          0.0000          0.0000          0.0000          0.0000          0.0000          0.0000

STAT_1:   740000             576

Steps/sec. : 1334.9504
MOVE_0:   750000          149885           75992         50.7002          1.8266           75047           40546         54.0275         17.5000               0               0          0.0000          261948          110747         42.2782

ENER_0:   750000      48774.4284      66106.7298      -3838.4296     -12605.0248       -888.8469          0.0000          0.0000          0.0000          0.0000          0.0000

STAT_0:   750000              25

MOVE_1:   750000          263120          110770         42.0987

ENER_1:   750000    1301450.9392    1387530.2273     -86079.2881          0.0000          0.0000          0.0000          0.0000          0.0000          0.0000          0.0000

STAT_1:   750000             577

Steps/sec. : 1389.7687
MOVE_0:   760000          151857           76971         50.6865          1.3835           76103           41139         54.0570         17.5000               0               0          0.0000          265365          112323         42.3277

ENER_0:   760000      72376.8504     127146.1035      -7332.4337     -44022.2250      -3414.5943          0.0000          0.0000          0.0000          0.0000          0.0000

STAT_0:   760000              49

MOVE_1:   760000          266675          112370         42.1374

ENER_1:   760000    1258793.7044    1341687.4529     -82893.7485          0.0000          0.0000          0.0000          0.0000          0.0000          0.0000          0.0000

STAT_1:   760000             553

Steps/sec. : 1338.5403
MOVE_0:   770000          153868           78008         50.6980          1.7127           77086           41731         54.1356         17.5000               0               0          0.0000          268807          114038         42.4237

ENER_0:   770000      71213.3333     111518.2905      -7657.6454     -29894.0196      -2753.2922          0.0000          0.0000          0.0000          0.0000          0.0000

STAT_0:   770000              44

MOVE_1:   770000          270239          114080         42.2145

ENER_1:   770000    1292352.3018    1373178.6937     -80826.3919          0.0000          0.0000          0.0000          0.0000          0.0000          0.0000          0.0000

STAT_1:   770000             558

Steps/sec. : 1415.5879
MOVE_0:   780000          155903           79023         50.6873          1.4243           78114           42291         54.1401         14.4298               0               0          0.0000          272267          115720         42.5024

ENER_0:   780000      63093.1126     115133.5421      -7200.0632     -41425.7720      -3414.5943          0.0000          0.0000          0.0000          0.0000          0.0000

STAT_0:   780000              49

MOVE_1:   780000          273716          115767         42.2946

ENER_1:   780000    1267201.0769    1346318.3683     -79117.2915          0.0000          0.0000          0.0000          0.0000          0.0000          0.0000          0.0000

STAT_1:   780000             553

Steps/sec. : 1440.4564
MOVE_0:   790000          157877           80012         50.6800          1.2960           79111           42872         54.1922         17.5000               0               0          0.0000          275728          117362         42.5644

ENER_0:   790000      49847.0898      93903.3561      -7110.9407     -34315.7610      -2629.5647          0.0000          0.0000          0.0000          0.0000          0.0000

STAT_0:   790000              43

MOVE_1:   790000          277284          117403         42.3403

ENER_1:   790000    1267325.3258    1343745.7034     -76420.3776          0.0000          0.0000          0.0000          0.0000          0.0000          0.0000          0.0000

STAT_1:   790000             559

Steps/sec. : 1481.7559
MOVE_0:   800000          159881           81126         50.7415          3.5526           80120           43496         54.2886         17.5000               0               0          0.0000          279268          119114         42.6522

ENER_0:   800000      39786.8590      56138.8971      -3228.2067     -12304.6701       -819.1613          0.0000          0.0000          0.0000          0.0000          0.0000

STAT_0:   800000              24

MOVE_1:   800000          280731          119136         42.4378

ENER_1:   800000    1337506.0196    1418344.4986     -80838.4790          0.0000          0.0000          0.0000          0.0000          0.0000          0.0000          0.0000

STAT_1:   800000             578

Steps/sec. : 1437.0138
MOVE_0:   810000          161903           82051         50.6791          1.3624           81059           44061         54.3567         14.2461               0               0          0.0000          282836          120817         42.7163

ENER_0:   810000      62142.4472     114320.0399      -7378.9271     -41918.8016      -2879.8640          0.0000          0.0000          0.0000          0.0000          0.0000

STAT_0:   810000              45

MOVE_1:   810000          284202          120860         42.5261

ENER_1:   810000    1247839.3720    1330788.7198     -82949.3478          0.0000          0.0000          0.0000          0.0000          0.0000          0.0000          0.0000

STAT_1:   810000             557

Steps/sec. : 1489.7641
MOVE_0:   820000          163954           83086         50.6764          1.3284           82093           44586         54.3116         15.6916               0               0          0.0000          286222          122350         42.7465

ENER_0:   820000      62811.5224     102316.6875      -6122.0791     -30373.8059      -3009.2801          0.0000          0.0000          0.0000          0.0000          0.0000

STAT_0:   820000              46

MOVE_1:   820000          287731          122394         42.5376

ENER_1:   820000    1307522.9538    1384791.3800     -77268.4262          0.0000          0.0000          0.0000          0.0000          0.0000          0.0000          0.0000

STAT_1:   820000             556

Steps/sec. : 1374.2603
MOVE_0:   830000          165961           84070         50.6565          0.9748           83066           45010         54.1858          3.5902               0               0          0.0000          289671          123832         42.7492

ENER_0:   830000      67098.5272     173330.0177     -10776.8137     -87666.9557      -7787.7212          0.0000          0.0000          0.0000          0.0000          0.0000

STAT_0:   830000              74

MOVE_1:   830000          291302          123904         42.5346

ENER_1:   830000    1221786.3893    1292322.2713     -70535.8820          0.0000          0.0000          0.0000          0.0000          0.0000          0.0000          0.0000

STAT_1:   830000             528

Steps/sec. : 1385.3957
MOVE_0:   840000          167990           85105         50.6608          1.1313           84066           45485         54.1063          1.7260               0               0          0.0000          293136          125291         42.7416

ENER_0:   840000      69704.9475     142859.0191      -9170.4236     -58339.1146      -5644.5335          0.0000          0.0000          0.0000          0.0000          0.0000

STAT_0:   840000              63

MOVE_1:   840000          294808          125352         42.5199

ENER_1:   840000    1233342.8218    1312998.8875     -79656.0657          0.0000          0.0000          0.0000          0.0000          0.0000          0.0000          0.0000

STAT_1:   840000             539

Steps/sec. : 1321.4339
MOVE_0:   850000          170016           86148         50.6705          1.3727           85055           46003         54.0862          2.7099               0               0          0.0000          296558          126792         42.7545

ENER_0:   850000      70219.2358     125823.2627      -8261.1282     -43497.3914      -3845.5073          0.0000          0.0000          0.0000          0.0000          0.0000

STAT_0:   850000              52

MOVE_1:   850000          298371          126842         42.5115

ENER_1:   850000    1266632.9252    1348532.4765     -81899.5513          0.0000          0.0000          0.0000          0.0000          0.0000          0.0000          0.0000

STAT_1:   850000             550

Steps/sec. : 1363.8860
MOVE_0:   860000          172033           87216         50.6972          2.2100           86066           46580         54.1213          8.8782               0               0          0.0000          300062          128482         42.8185

ENER_0:   860000      65783.3861      89529.7062      -4900.3030     -17002.9041      -1843.1130          0.0000          0.0000          0.0000          0.0000          0.0000

STAT_0:   860000              36

MOVE_1:   860000          301839          128516         42.5777

ENER_1:   860000    1327231.5175    1411197.3200     -83965.8025          0.0000          0.0000          0.0000          0.0000          0.0000          0.0000          0.0000

STAT_1:   860000             566

Steps/sec. : 1457.4563
MOVE_0:   870000          174041           88197         50.6760          1.3411           87084           47035         54.0111          2.9652               0               0          0.0000          303534          129940         42.8090

ENER_0:   870000      71400.1218     106653.1908      -7093.7438     -25529.7604      -2629.5647          0.0000          0.0000          0.0000          0.0000          0.0000

STAT_0:   870000              43

MOVE_1:   870000          305341          129981         42.5691

ENER_1:   870000    1305166.9938    1386586.5949     -81419.6011          0.0000          0.0000          0.0000          0.0000          0.0000          0.0000          0.0000

STAT_1:   870000             559

Steps/sec. : 1358.7126
MOVE_0:   880000          176018           89234         50.6960          1.9553           88073           47651         54.1040         17.5000               0               0          0.0000          307053          131650         42.8753

ENER_0:   880000      84409.9771     123029.0926      -6870.7566     -28868.4949      -2879.8640          0.0000          0.0000          0.0000          0.0000          0.0000

STAT_0:   880000              45

MOVE_1:   880000          308856          131693         42.6390

ENER_1:   880000    1343287.7453    1421642.8680     -78355.1227          0.0000          0.0000          0.0000          0.0000          0.0000          0.0000          0.0000

STAT_1:   880000             557

Steps/sec. : 1473.3273
MOVE_0:   890000          178036           90249         50.6914          1.7971           89071           48245         54.1647         17.5000               0               0          0.0000          310558          133368         42.9446

ENER_0:   890000      59675.8363      92668.5461      -6462.0482     -24367.5638      -2163.0979          0.0000          0.0000          0.0000          0.0000          0.0000

STAT_0:   890000              39

MOVE_1:   890000          312335          133405         42.7122

ENER_1:   890000    1277374.8629    1361930.6272     -84555.7643          0.0000          0.0000          0.0000          0.0000          0.0000          0.0000          0.0000

STAT_1:   890000             563

Steps/sec. : 1452.5252
MOVE_0:   900000          180030           91215         50.6666          1.2141           90102           48795         54.1553         13.0333               0               0          0.0000          314071          134986         42.9795

ENER_0:   900000      43034.9839      59877.4354      -2472.1978     -13255.2841      -1114.9696          0.0000          0.0000          0.0000          0.0000          0.0000

STAT_0:   900000              28

MOVE_1:   900000          315797          135012         42.7528

ENER_1:   900000    1311886.3395    1398964.8926     -87078.5530          0.0000          0.0000          0.0000          0.0000          0.0000          0.0000          0.0000

STAT_1:   900000             574

Steps/sec. : 1438.4323
MOVE_0:   910000          181989           92193         50.6586          1.0420           91103           49287         54.1003          6.1208               0               0          0.0000          317556          136558         43.0028

ENER_0:   910000      72050.8824     105962.7327      -4956.5515     -26446.6173      -2508.6815          0.0000          0.0000          0.0000          0.0000          0.0000

STAT_0:   910000              42

MOVE_1:   910000          319352          136598         42.7735

ENER_1:   910000    1271526.4006    1351200.5521     -79674.1516          0.0000          0.0000          0.0000          0.0000          0.0000          0.0000          0.0000

STAT_1:   910000             560

Steps/sec. : 1415.3861
MOVE_0:   920000          183993           93292         50.7041          2.2611           92090           49914         54.2013         17.5000               0               0          0.0000          321070          138348         43.0897

ENER_0:   920000      37470.0981      53942.1750      -3961.7074     -11621.5226       -888.8469          0.0000          0.0000          0.0000          0.0000          0.0000

STAT_0:   920000              25

MOVE_1:   920000          322847          138371         42.8596

ENER_1:   920000    1372907.4668    1455711.4412     -82803.9744          0.0000          0.0000          0.0000          0.0000          0.0000          0.0000          0.0000

STAT_1:   920000             577

Steps/sec. : 1511.9821
MOVE_0:   930000          186033           94351         50.7173          2.8429           93118           50540         54.2752         17.5000               0               0          0.0000          324546          140061         43.1560

ENER_0:   930000      39311.1449      50880.1807      -3092.7289      -7907.4449       -568.8620          0.0000          0.0000          0.0000          0.0000          0.0000

STAT_0:   930000              20

MOVE_1:   930000          326303          140079         42.9291

ENER_1:   930000    1340938.5833    1425772.3700     -84833.7867          0.0000          0.0000          0.0000          0.0000          0.0000          0.0000          0.0000

STAT_1:   930000             582

Steps/sec. : 1544.9854
MOVE_0:   940000          188002           95333         50.7085          2.0996           94144           51200         54.3848         17.5000               0               0          0.0000          328109          141805         43.2189

ENER_0:   940000      56194.4607      76694.6222      -4412.2309     -14891.8981      -1196.0324          0.0000          0.0000          0.0000          0.0000          0.0000

STAT_0:   940000              29

MOVE_1:   940000          329745          141832         43.0126

ENER_1:   940000    1308905.1923    1393454.5271     -84549.3348          0.0000          0.0000          0.0000          0.0000          0.0000          0.0000          0.0000

STAT_1:   940000             573

Steps/sec. : 1502.5059
MOVE_0:   950000          189963           96335         50.7125          2.3254           95130           51772         54.4224         17.5000               0               0          0.0000          331657          143524         43.2748

ENER_0:   950000      69319.3874     103471.0502      -5659.6756     -26101.3446      -2390.6427          0.0000          0.0000          0.0000          0.0000          0.0000

STAT_0:   950000              41

MOVE_1:   950000          333250          143563         43.0797

ENER_1:   950000    1276082.5467    1358990.6243     -82908.0776          0.0000          0.0000          0.0000          0.0000          0.0000          0.0000          0.0000

STAT_1:   950000             561

Steps/sec. : 1489.6895
MOVE_0:   960000          191900           97319         50.7134          2.2623           96166           52383         54.4714         17.5000               0               0          0.0000          335169          145272         43.3429

ENER_0:   960000      42665.9652      58915.3316      -4400.8672     -10811.7481      -1036.7510          0.0000          0.0000          0.0000          0.0000          0.0000

STAT_0:   960000              27

MOVE_1:   960000          336765          145297         43.1449

ENER_1:   960000    1300953.8253    1378974.1717     -78020.3464          0.0000          0.0000          0.0000          0.0000          0.0000          0.0000          0.0000

STAT_1:   960000             575

Steps/sec. : 1653.4586
MOVE_0:   970000          193894           98323         50.7097          1.7102           97112           52922         54.4958         17.5000               0               0          0.0000          338672          146924         43.3824

ENER_0:   970000      35491.5578      47800.9632      -2138.0972      -9544.1379       -627.1704          0.0000          0.0000          0.0000          0.0000          0.0000

STAT_0:   970000              21

MOVE_1:   970000          340322          146943         43.1776

ENER_1:   970000    1410763.2382    1492714.6117     -81951.3735          0.0000          0.0000          0.0000          0.0000          0.0000          0.0000          0.0000

STAT_1:   970000             581

Steps/sec. : 1648.6361
MOVE_0:   980000          195845           99310         50.7085          1.8112           98103           53490         54.5243         17.5000               0               0          0.0000          342195          148643         43.4381

ENER_0:   980000      52967.9797      80866.1078      -4675.0588     -22027.0368      -1196.0324          0.0000          0.0000          0.0000          0.0000          0.0000

STAT_0:   980000              29

MOVE_1:   980000          343857          148670         43.2360

ENER_1:   980000    1345406.0434    1427307.5891     -81901.5458          0.0000          0.0000          0.0000          0.0000          0.0000          0.0000          0.0000

STAT_1:   980000             573

Steps/sec. : 1606.4631
MOVE_0:   990000          197795          100180         50.6484          0.5326           99125           53918         54.3939          1.0641               0               0          0.0000          345642          149979         43.3914

ENER_0:   990000      70458.2827     293341.4331     -15038.0683    -189685.5840     -18159.4981          0.0000          0.0000          0.0000          0.0000          0.0000

STAT_0:   990000             113

MOVE_1:   990000          347438          150090         43.1991

ENER_1:   990000    1141493.0218    1211755.4476     -70262.4258          0.0000          0.0000          0.0000          0.0000          0.0000          0.0000          0.0000

STAT_1:   990000             489

Steps/sec. : 1457.2867
MOVE_0:  1000000          199793          101255         50.6800          1.0699          100109           54435         54.3757          1.6266               0               0          0.0000          349258          151199         43.2915

ENER_0:  1000000      47604.7803      78591.9840      -5526.2128     -23718.8508      -1742.1400          0.0000          0.0000          0.0000          0.0000          0.0000

STAT_0:  1000000              35

MOVE_1:  1000000          350840          151232         43.1057

ENER_1:  1000000    1265955.6062    1345683.3178     -79727.7115          0.0000          0.0000          0.0000          0.0000          0.0000          0.0000          0.0000

STAT_1:  1000000             567

Simulation Time (total): 516.9763sec.
GOMC Serial Version 1.9
Completed at: Sat Apr 22 21:53:16 2017
On hostname: potoff39.eng.wayne.edu
