GOMC Serial Version 1.9
Started at: Fri Dec  9 11:32:06 2016
On hostname: potoff39.eng.wayne.edu

Total number of CPUs: 4
Total number of CPUs available: 4
Model name: Intel(R) Core(TM) i5-2500K CPU @ 3.30GHz

System name: Linux
Release: 2.6.32-642.4.2.el6.x86_64
Version: #1 SMP Tue Aug 23 19:58:13 UTC 2016
Kernel Architecture: x86_64
Total Ram: 7856.3MB
Used Ram: 5537.9MB
Working in the current directory /home3/soroush/Desktop/validation/GOMC_Serial-development_1.90/GOMC_Examples-master/GCMC/isobutane/run2a_bridge

------------------------------------------------------
This code was compiled to support the grand canonical ensemble.
------------------------------------------------------

REMINDER: CHARMM force field has been selected!
Temperature of system has been set to 410.0 K 
By default intra box swap frequency has been set to zero
Warning: Electrostatic energy would not be calculated!
Reading from CHARMM-Style Parameter File file: ./../../../common/Par_TraPPE_Alkanes_CHARMM.inp

Finished reading CHARMM-Style Parameter File file: ./../../../common/Par_TraPPE_Alkanes_CHARMM.inp

Reading from Box 1 PDB coordinate file file: ./STEP3_START_ISB_vap_BOX_0.pdb

Finished reading Box 1 PDB coordinate file file: ./STEP3_START_ISB_vap_BOX_0.pdb

Reading from Box 2 PDB coordinate file file: ./STEP3_START_ISB_reservoir_BOX_1.pdb

Finished reading Box 2 PDB coordinate file file: ./STEP3_START_ISB_reservoir_BOX_1.pdb

Random number seed: 3715890227

Molecules in PSF:

Molecule Kind: ISB
Idx	name	type	charge	mass
0	C1	CH1	0.0	13.0
1	C2	CH3	0.0	15.0
2	C3	CH3	0.0	15.0
3	C4	CH3	0.0	15.0

Bonds:
[0 1] [0 2] [0 3] 

Angles:
[1 0 3] [1 0 2] [2 0 3] 

Dihedrals:

REMINDER! 1-3 and 1-4 Interaction is OFF


########################## INITIAL SIMULATION ENERGY ##########################
ETITLE_BOX_0    TOTAL           INTRA(B)        INTRA(N)        INTER(LJ)       LRC             TOTAL_ELECT     REAL            RECIP           SELF            CORR            

ENERGY_BOX_0    206.4495        364.4544        0.0000          -153.5288       -4.4761         0.0000          0.0000          0.0000          0.0000          -0.0000         

ETITLE_BOX_1    TOTAL           INTRA(B)        INTRA(N)        INTER(LJ)       LRC             TOTAL_ELECT     REAL            RECIP           SELF            CORR            

ENERGY_BOX_1    109688.7579     109688.7579     0.0000          0.0000          0.0000          0.0000          0.0000          0.0000          0.0000          -0.0000         

###############################################################################

############################# STARTING SIMULATION #############################
MTITLE_BOX_0    DISTRY          DISACCEPT       DISACCEPT%      DISMAX          ROTATE          ROTACCEPT       ROTACCEPT%      ROTMAX          INTRASWAP       INTACCEPT       INTACCEPT%      TRANSFER        TRANACCEPT      TRANACCEPT%     STEP            

ETITLE_BOX_0    TOTAL           INTRA(B)        INTRA(N)        INTER(LJ)       LRC             TOTAL_ELECT     REAL            RECIP           SELF            CORR            
STITLE_BOX_0    TOTALMOL        

MTITLE_BOX_1    TRANSFER        TRANACCEPT      TRANACCEPT%     STEP            

ETITLE_BOX_1    TOTAL           INTRA(B)        INTRA(N)        INTER(LJ)       LRC             TOTAL_ELECT     REAL            RECIP           SELF            CORR            
STITLE_BOX_1    TOTALMOL        

Printed combined psf to file ISB_410_00_K_u_3135_r1a.psf
MOVE_BOX_0      2069            935             45.1909         1.4852          989             787             79.5753         3.1416          0               0               0.0000          3468            1810            52.1915         10000           

ENERGY_BOX_0    5893.9777       18490.4434      0.0000          -11589.3354     -1007.1303      0.0000          0.0000          0.0000          0.0000          0.0000          

STAT_BOX_0      30              

MOVE_BOX_1      3474            1838            52.9073         10000           

ENERGY_BOX_1    373766.6701     373766.6701     0.0000          0.0000          0.0000          0.0000          0.0000          0.0000          0.0000          0.0000          

STAT_BOX_1      572             

Steps/sec. : 10226.3831
MOVE_BOX_0      4092            1936            47.3118         0.8975          2009            1542            76.7546         3.1416          0               0               0.0000          6954            3529            50.7478         20000           

ENERGY_BOX_0    -33748.0636     44395.4662      0.0000          -70801.5501     -7341.9797      0.0000          0.0000          0.0000          0.0000          0.0000          

STAT_BOX_0      81              

MOVE_BOX_1      6945            3608            51.9510         20000           

ENERGY_BOX_1    325915.3576     325915.3576     0.0000          0.0000          0.0000          0.0000          0.0000          0.0000          0.0000          0.0000          

STAT_BOX_1      521             

Steps/sec. : 9608.6203
MOVE_BOX_0      6033            2903            48.1187         0.7911          3007            2120            70.5022         3.1416          0               0               0.0000          10531           4863            46.1780         30000           

ENERGY_BOX_0    -25024.9614     48966.6678      0.0000          -67183.4286     -6808.2006      0.0000          0.0000          0.0000          0.0000          0.0000          

STAT_BOX_0      78              

MOVE_BOX_1      10429           4939            47.3583         30000           

ENERGY_BOX_1    323028.9198     323028.9198     0.0000          0.0000          0.0000          0.0000          0.0000          0.0000          0.0000          0.0000          

STAT_BOX_1      524             

Steps/sec. : 6045.5072
MOVE_BOX_0      8041            3928            48.8496         0.9525          3981            2713            68.1487         3.1416          0               0               0.0000          14040           6207            44.2094         40000           

ENERGY_BOX_0    -13675.9486     47822.8821      0.0000          -55697.7603     -5801.0704      0.0000          0.0000          0.0000          0.0000          0.0000          

STAT_BOX_0      72              

MOVE_BOX_1      13938           6277            45.0352         40000           

ENERGY_BOX_1    329699.6244     329699.6244     0.0000          0.0000          0.0000          0.0000          0.0000          0.0000          0.0000          0.0000          

STAT_BOX_1      530             

Steps/sec. : 6304.7012
MOVE_BOX_0      10065           5012            49.7963         1.5222          4931            3454            70.0466         3.1416          0               0               0.0000          17552           8138            46.3651         50000           

ENERGY_BOX_0    2300.8971       24660.5946      0.0000          -20657.6473     -1702.0502      0.0000          0.0000          0.0000          0.0000          0.0000          

STAT_BOX_0      39              

MOVE_BOX_1      17452           8175            46.8428         50000           

ENERGY_BOX_1    376208.9157     376208.9157     0.0000          0.0000          0.0000          0.0000          0.0000          0.0000          0.0000          0.0000          

STAT_BOX_1      563             

Steps/sec. : 10611.6889
MOVE_BOX_0      12048           6102            50.6474         3.2764          5924            4276            72.1810         3.1416          0               0               0.0000          21151           10244           48.4327         60000           

ENERGY_BOX_0    6837.5514       9828.4473       0.0000          -2771.5653      -219.3306       0.0000          0.0000          0.0000          0.0000          0.0000          

STAT_BOX_0      14              

MOVE_BOX_1      20877           10256           49.1258         60000           

ENERGY_BOX_1    365069.8416     365069.8416     0.0000          0.0000          0.0000          0.0000          0.0000          0.0000          0.0000          0.0000          

STAT_BOX_1      588             

Steps/sec. : 14070.0203
MOVE_BOX_0      14013           7055            50.3461         2.2612          6904            5063            73.3343         3.1416          0               0               0.0000          24716           12224           49.4578         70000           

ENERGY_BOX_0    9419.8246       17026.3875      0.0000          -7014.5941      -591.9688       0.0000          0.0000          0.0000          0.0000          0.0000          

STAT_BOX_0      23              

MOVE_BOX_1      24367           12245           50.2524         70000           

ENERGY_BOX_1    374509.1156     374509.1156     0.0000          0.0000          0.0000          0.0000          0.0000          0.0000          0.0000          0.0000          

STAT_BOX_1      579             

Steps/sec. : 13161.4292
MOVE_BOX_0      16065           8109            50.4762         2.6757          7878            5836            74.0797         3.1416          0               0               0.0000          28159           14174           50.3356         80000           

ENERGY_BOX_0    6015.5008       27279.0591      0.0000          -19194.4651     -2069.0932      0.0000          0.0000          0.0000          0.0000          0.0000          

STAT_BOX_0      43              

MOVE_BOX_1      27898           14215           50.9535         80000           

ENERGY_BOX_1    366694.1194     366694.1194     0.0000          0.0000          0.0000          0.0000          0.0000          0.0000          0.0000          0.0000          

STAT_BOX_1      559             

Steps/sec. : 12788.4908
MOVE_BOX_0      18090           9091            50.2543         1.8331          8884            6563            73.8744         3.1416          0               0               0.0000          31623           16019           50.6562         90000           

ENERGY_BOX_0    7880.7051       35502.2195      0.0000          -25043.2609     -2578.2535      0.0000          0.0000          0.0000          0.0000          0.0000          

STAT_BOX_0      48              

MOVE_BOX_1      31403           16065           51.1575         90000           

ENERGY_BOX_1    344211.9367     344211.9367     0.0000          0.0000          0.0000          0.0000          0.0000          0.0000          0.0000          0.0000          

STAT_BOX_1      554             

Steps/sec. : 10305.1342
MOVE_BOX_0      20104           10138           50.4278         2.5841          9880            7387            74.7672         3.1416          0               0               0.0000          35150           18091           51.4680         100000          

ENERGY_BOX_0    9292.8719       16321.8340      0.0000          -6436.9932      -591.9688       0.0000          0.0000          0.0000          0.0000          0.0000          

STAT_BOX_0      23              

MOVE_BOX_1      34866           18112           51.9475         100000          

ENERGY_BOX_1    383814.7206     383814.7206     0.0000          0.0000          0.0000          0.0000          0.0000          0.0000          0.0000          0.0000          

STAT_BOX_1      579             

Steps/sec. : 13851.8174
MOVE_BOX_0      22076           11080           50.1903         1.3756          10885           8071            74.1479         3.1416          0               0               0.0000          38575           19701           51.0719         110000          

ENERGY_BOX_0    -459.1414       21277.0513      0.0000          -19945.7389     -1790.4538      0.0000          0.0000          0.0000          0.0000          0.0000          

STAT_BOX_0      40              

MOVE_BOX_1      38464           19739           51.3181         110000          

ENERGY_BOX_1    368786.0724     368786.0724     0.0000          0.0000          0.0000          0.0000          0.0000          0.0000          0.0000          0.0000          

STAT_BOX_1      562             

Steps/sec. : 7986.3971
MOVE_BOX_0      24057           12047           50.0769         0.8398          11859           8793            74.1462         3.1416          0               0               0.0000          42134           21527           51.0918         120000          

ENERGY_BOX_0    -27148.6414     60513.5250      0.0000          -79577.1483     -8085.0180      0.0000          0.0000          0.0000          0.0000          0.0000          

STAT_BOX_0      85              

MOVE_BOX_1      41950           21610           51.5137         120000          

ENERGY_BOX_1    328185.1533     328185.1533     0.0000          0.0000          0.0000          0.0000          0.0000          0.0000          0.0000          0.0000          

STAT_BOX_1      517             

Steps/sec. : 10234.0435
MOVE_BOX_0      26080           13198           50.6058         2.5069          12897           9558            74.1103         3.1416          0               0               0.0000          45621           23360           51.2045         130000          

ENERGY_BOX_0    9376.8612       17843.6236      0.0000          -7650.9869      -815.7755       0.0000          0.0000          0.0000          0.0000          0.0000          

STAT_BOX_0      27              

MOVE_BOX_1      45402           23385           51.5065         130000          

ENERGY_BOX_1    381162.6878     381162.6878     0.0000          0.0000          0.0000          0.0000          0.0000          0.0000          0.0000          0.0000          

STAT_BOX_1      575             

Steps/sec. : 10030.8053
MOVE_BOX_0      28117           14223           50.5851         2.0072          13894           10325           74.3127         3.1416          0               0               0.0000          49116           25203           51.3132         140000          

ENERGY_BOX_0    11043.3626      22978.5914      0.0000          -10994.1216     -941.1073       0.0000          0.0000          0.0000          0.0000          0.0000          

STAT_BOX_0      29              

MOVE_BOX_1      48873           25230           51.6236         140000          

ENERGY_BOX_1    383484.1124     383484.1124     0.0000          0.0000          0.0000          0.0000          0.0000          0.0000          0.0000          0.0000          

STAT_BOX_1      573             

Steps/sec. : 10886.9467
MOVE_BOX_0      30152           15156           50.2653         0.7761          14949           10972           73.3962         3.1416          0               0               0.0000          52508           26547           50.5580         150000          

ENERGY_BOX_0    -63269.4005     58226.1842      0.0000          -109623.7569    -11871.8278     0.0000          0.0000          0.0000          0.0000          0.0000          

STAT_BOX_0      103             

MOVE_BOX_1      52391           26648           50.8637         150000          

ENERGY_BOX_1    317609.8058     317609.8058     0.0000          0.0000          0.0000          0.0000          0.0000          0.0000          0.0000          0.0000          

STAT_BOX_1      499             

Steps/sec. : 6782.1675
MOVE_BOX_0      32116           16259           50.6259         2.3968          15938           11616           72.8824         3.1416          0               0               0.0000          56039           28134           50.2043         160000          

ENERGY_BOX_0    10708.9793      25914.1024      0.0000          -13911.5202     -1293.6029      0.0000          0.0000          0.0000          0.0000          0.0000          

STAT_BOX_0      34              

MOVE_BOX_1      55907           28166           50.3801         160000          

ENERGY_BOX_1    374577.5209     374577.5209     0.0000          0.0000          0.0000          0.0000          0.0000          0.0000          0.0000          0.0000          

STAT_BOX_1      568             

Steps/sec. : 7483.3662
MOVE_BOX_0      34170           17272           50.5473         1.6686          16941           12383           73.0949         3.1416          0               0               0.0000          59504           29959           50.3479         170000          

ENERGY_BOX_0    7624.3858       17459.6334      0.0000          -9019.4720      -815.7755       0.0000          0.0000          0.0000          0.0000          0.0000          

STAT_BOX_0      27              

MOVE_BOX_1      59385           29984           50.4909         170000          

ENERGY_BOX_1    363780.2895     363780.2895     0.0000          0.0000          0.0000          0.0000          0.0000          0.0000          0.0000          0.0000          

STAT_BOX_1      575             

Steps/sec. : 10212.2827
MOVE_BOX_0      36191           18270           50.4822         1.1734          17960           13054           72.6837         3.1416          0               0               0.0000          62932           31485           50.0302         180000          

ENERGY_BOX_0    2851.1025       49036.3610      0.0000          -42021.3344     -4163.9241      0.0000          0.0000          0.0000          0.0000          0.0000          

STAT_BOX_0      61              

MOVE_BOX_1      62917           31544           50.1359         180000          

ENERGY_BOX_1    352926.9258     352926.9258     0.0000          0.0000          0.0000          0.0000          0.0000          0.0000          0.0000          0.0000          

STAT_BOX_1      541             

Steps/sec. : 7433.9716
MOVE_BOX_0      38102           19287           50.6194         2.1348          18958           13751           72.5340         3.1416          0               0               0.0000          66554           33222           49.9174         190000          

ENERGY_BOX_0    7204.7314       9903.9438       0.0000          -2447.4299      -251.7826       0.0000          0.0000          0.0000          0.0000          0.0000          

STAT_BOX_0      15              

MOVE_BOX_1      66386           33235           50.0633         190000          

ENERGY_BOX_1    375912.7594     375912.7594     0.0000          0.0000          0.0000          0.0000          0.0000          0.0000          0.0000          0.0000          

STAT_BOX_1      587             

Steps/sec. : 8640.7574
MOVE_BOX_0      40066           20215           50.4543         0.9339          19922           14472           72.6433         3.1416          0               0               0.0000          70038           35041           50.0314         200000          

ENERGY_BOX_0    -33932.0690     48923.3805      0.0000          -74579.0768     -8276.3727      0.0000          0.0000          0.0000          0.0000          0.0000          

STAT_BOX_0      86              

MOVE_BOX_1      69974           35125           50.1972         200000          

ENERGY_BOX_1    338535.9721     338535.9721     0.0000          0.0000          0.0000          0.0000          0.0000          0.0000          0.0000          0.0000          

STAT_BOX_1      516             

Steps/sec. : 10174.1092
MOVE_BOX_0      42080           21212           50.4087         0.7750          20924           14994           71.6593         2.0982          0               0               0.0000          73481           36050           49.0603         210000          

ENERGY_BOX_0    -82474.2444     73584.4760      0.0000          -141515.7593    -14542.9611     0.0000          0.0000          0.0000          0.0000          0.0000          

STAT_BOX_0      114             

MOVE_BOX_1      73515           36162           49.1900         210000          

ENERGY_BOX_1    315154.5085     315154.5085     0.0000          0.0000          0.0000          0.0000          0.0000          0.0000          0.0000          0.0000          

STAT_BOX_1      488             

Steps/sec. : 5289.1695
MOVE_BOX_0      44093           22210           50.3708         0.6892          21989           15569           70.8036         3.1416          0               0               0.0000          76940           37077           48.1895         220000          

ENERGY_BOX_0    -64453.3045     69236.2227      0.0000          -121352.1814    -12337.3458     0.0000          0.0000          0.0000          0.0000          0.0000          

STAT_BOX_0      105             

MOVE_BOX_1      76978           37180           48.2995         220000          

ENERGY_BOX_1    315147.2261     315147.2261     0.0000          0.0000          0.0000          0.0000          0.0000          0.0000          0.0000          0.0000          

STAT_BOX_1      497             

Steps/sec. : 5290.8902
MOVE_BOX_0      46035           23189           50.3725         0.7087          23016           16109           69.9904         3.0702          0               0               0.0000          80407           38114           47.4013         230000          

ENERGY_BOX_0    -41076.8196     52373.1022      0.0000          -84586.0564     -8863.8654      0.0000          0.0000          0.0000          0.0000          0.0000          

STAT_BOX_0      89              

MOVE_BOX_1      80542           38201           47.4299         230000          

ENERGY_BOX_1    318485.4179     318485.4179     0.0000          0.0000          0.0000          0.0000          0.0000          0.0000          0.0000          0.0000          

STAT_BOX_1      513             

Steps/sec. : 5295.0762
MOVE_BOX_0      47968           24194           50.4378         1.0159          23996           16652           69.3949         3.1416          0               0               0.0000          83914           39341           46.8825         240000          

ENERGY_BOX_0    -37326.6413     61865.1168      0.0000          -89720.2575     -9471.5007      0.0000          0.0000          0.0000          0.0000          0.0000          

STAT_BOX_0      92              

MOVE_BOX_1      84122           39431           46.8736         240000          

ENERGY_BOX_1    320840.1519     320840.1519     0.0000          0.0000          0.0000          0.0000          0.0000          0.0000          0.0000          0.0000          

STAT_BOX_1      510             

Steps/sec. : 5613.6947
MOVE_BOX_0      49990           25191           50.3921         0.8300          25004           17215           68.8490         3.1164          0               0               0.0000          87423           40554           46.3883         250000          

ENERGY_BOX_0    -68975.4369     56918.3902      0.0000          -113556.4812    -12337.3458     0.0000          0.0000          0.0000          0.0000          0.0000          

STAT_BOX_0      105             

MOVE_BOX_1      87583           40657           46.4211         250000          

ENERGY_BOX_1    301837.4023     301837.4023     0.0000          0.0000          0.0000          0.0000          0.0000          0.0000          0.0000          0.0000          

STAT_BOX_1      497             

Steps/sec. : 5803.1101
MOVE_BOX_0      52031           26269           50.4872         1.2800          25977           17792           68.4914         3.1416          0               0               0.0000          90919           41951           46.1411         260000          

ENERGY_BOX_0    -3142.0179      34912.8034      0.0000          -34545.5318     -3509.2895      0.0000          0.0000          0.0000          0.0000          0.0000          

STAT_BOX_0      56              

MOVE_BOX_1      91073           42005           46.1223         260000          

ENERGY_BOX_1    323632.7368     323632.7368     0.0000          0.0000          0.0000          0.0000          0.0000          0.0000          0.0000          0.0000          

STAT_BOX_1      546             

Steps/sec. : 6313.6973
MOVE_BOX_0      53960           27323           50.6357         2.4444          27032           18540           68.5854         3.1416          0               0               0.0000          94462           43780           46.3467         270000          

ENERGY_BOX_0    472.5697        14727.4829      0.0000          -13179.5218     -1075.3913      0.0000          0.0000          0.0000          0.0000          0.0000          

STAT_BOX_0      31              

MOVE_BOX_1      94546           43809           46.3362         270000          

ENERGY_BOX_1    367384.5091     367384.5091     0.0000          0.0000          0.0000          0.0000          0.0000          0.0000          0.0000          0.0000          

STAT_BOX_1      571             

Steps/sec. : 9342.8867
MOVE_BOX_0      55884           28297           50.6352         2.2160          28015           19286           68.8417         3.1416          0               0               0.0000          97966           45649           46.5968         280000          

ENERGY_BOX_0    13443.8712      20038.1750      0.0000          -6190.3327      -403.9711       0.0000          0.0000          0.0000          0.0000          0.0000          

STAT_BOX_0      19              

MOVE_BOX_1      98135           45666           46.5339         280000          

ENERGY_BOX_1    374073.0116     374073.0116     0.0000          0.0000          0.0000          0.0000          0.0000          0.0000          0.0000          0.0000          

STAT_BOX_1      583             

Steps/sec. : 10182.4478
MOVE_BOX_0      57867           29313           50.6558         2.4984          29021           20101           69.2636         3.1416          0               0               0.0000          101420          47611           46.9444         290000          

ENERGY_BOX_0    7543.7144       10242.3113      0.0000          -2294.6257      -403.9711       0.0000          0.0000          0.0000          0.0000          0.0000          

STAT_BOX_0      19              

MOVE_BOX_1      101692          47628           46.8355         290000          

ENERGY_BOX_1    408673.3782     408673.3782     0.0000          0.0000          0.0000          0.0000          0.0000          0.0000          0.0000          0.0000          

STAT_BOX_1      583             

Steps/sec. : 11797.1853
MOVE_BOX_0      59905           30346           50.6569         2.2428          30021           20866           69.5047         3.1416          0               0               0.0000          104890          49509           47.2009         300000          

ENERGY_BOX_0    4173.5927       15270.3069      0.0000          -10340.2475     -756.4667       0.0000          0.0000          0.0000          0.0000          0.0000          

STAT_BOX_0      26              

MOVE_BOX_1      105184          49533           47.0918         300000          

ENERGY_BOX_1    363753.6216     363753.6216     0.0000          0.0000          0.0000          0.0000          0.0000          0.0000          0.0000          0.0000          

STAT_BOX_1      576             

Steps/sec. : 11205.4227
MOVE_BOX_0      61864           31326           50.6369         2.0890          31057           21671           69.7781         3.1416          0               0               0.0000          108401          51465           47.4765         310000          

ENERGY_BOX_0    6285.2538       19994.8637      0.0000          -12093.7253     -1615.8846      0.0000          0.0000          0.0000          0.0000          0.0000          

STAT_BOX_0      38              

MOVE_BOX_1      108678          51501           47.3886         310000          

ENERGY_BOX_1    363727.6108     363727.6108     0.0000          0.0000          0.0000          0.0000          0.0000          0.0000          0.0000          0.0000          

STAT_BOX_1      564             

Steps/sec. : 12331.5820
MOVE_BOX_0      63931           32404           50.6859         2.8563          32056           22459           70.0618         3.1416          0               0               0.0000          111850          53440           47.7783         320000          

ENERGY_BOX_0    9095.3924       24238.1271      0.0000          -13692.4671     -1450.2676      0.0000          0.0000          0.0000          0.0000          0.0000          

STAT_BOX_0      36              

MOVE_BOX_1      112163          53474           47.6753         320000          

ENERGY_BOX_1    364165.6527     364165.6527     0.0000          0.0000          0.0000          0.0000          0.0000          0.0000          0.0000          0.0000          

STAT_BOX_1      566             

Steps/sec. : 13432.6608
MOVE_BOX_0      65960           33426           50.6762         2.6304          33060           23276           70.4053         3.1416          0               0               0.0000          115361          55465           48.0795         330000          

ENERGY_BOX_0    9134.3807       21091.3211      0.0000          -10811.0500     -1145.8904      0.0000          0.0000          0.0000          0.0000          0.0000          

STAT_BOX_0      32              

MOVE_BOX_1      115619          55495           47.9982         330000          

ENERGY_BOX_1    369741.0969     369741.0969     0.0000          0.0000          0.0000          0.0000          0.0000          0.0000          0.0000          0.0000          

STAT_BOX_1      570             

Steps/sec. : 13136.5849
MOVE_BOX_0      67956           34339           50.5312         0.9814          34039           23951           70.3634         3.1416          0               0               0.0000          118874          57148           48.0744         340000          

ENERGY_BOX_0    -15537.0040     49044.7218      0.0000          -58780.6554     -5801.0704      0.0000          0.0000          0.0000          0.0000          0.0000          

STAT_BOX_0      72              

MOVE_BOX_1      119131          57218           48.0295         340000          

ENERGY_BOX_1    342953.8428     342953.8428     0.0000          0.0000          0.0000          0.0000          0.0000          0.0000          0.0000          0.0000          

STAT_BOX_1      530             

Steps/sec. : 8883.0454
MOVE_BOX_0      69952           35374           50.5690         1.2724          35036           24662           70.3905         3.1416          0               0               0.0000          122321          58868           48.1258         350000          

ENERGY_BOX_0    -18360.4991     40953.6954      0.0000          -53673.1459     -5641.0485      0.0000          0.0000          0.0000          0.0000          0.0000          

STAT_BOX_0      71              

MOVE_BOX_1      122691          58937           48.0369         350000          

ENERGY_BOX_1    331947.9182     331947.9182     0.0000          0.0000          0.0000          0.0000          0.0000          0.0000          0.0000          0.0000          

STAT_BOX_1      531             

Steps/sec. : 8441.4753
MOVE_BOX_0      71976           36499           50.7100         3.2329          36063           25424           70.4988         3.1416          0               0               0.0000          125900          60755           48.2566         360000          

ENERGY_BOX_0    6961.6377       19166.6331      0.0000          -11197.8651     -1007.1303      0.0000          0.0000          0.0000          0.0000          0.0000          

STAT_BOX_0      30              

MOVE_BOX_1      126061          60783           48.2171         360000          

ENERGY_BOX_1    364839.9183     364839.9183     0.0000          0.0000          0.0000          0.0000          0.0000          0.0000          0.0000          0.0000          

STAT_BOX_1      572             

Steps/sec. : 10770.5578
MOVE_BOX_0      74004           37555           50.7473         3.6820          37069           26244           70.7977         3.1416          0               0               0.0000          129419          62703           48.4496         370000          

ENERGY_BOX_0    13270.8080      23537.4175      0.0000          -9191.2182      -1075.3913      0.0000          0.0000          0.0000          0.0000          0.0000          

STAT_BOX_0      31              

MOVE_BOX_1      129508          62732           48.4387         370000          

ENERGY_BOX_1    369283.7099     369283.7099     0.0000          0.0000          0.0000          0.0000          0.0000          0.0000          0.0000          0.0000          

STAT_BOX_1      571             

Steps/sec. : 12011.6820
MOVE_BOX_0      76053           38482           50.5989         1.1896          38062           26980           70.8843         3.1416          0               0               0.0000          132935          64503           48.5222         380000          

ENERGY_BOX_0    1474.6389       35617.4503      0.0000          -31232.2049     -2910.6065      0.0000          0.0000          0.0000          0.0000          0.0000          

STAT_BOX_0      51              

MOVE_BOX_1      132950          64552           48.5536         380000          

ENERGY_BOX_1    359674.4299     359674.4299     0.0000          0.0000          0.0000          0.0000          0.0000          0.0000          0.0000          0.0000          

STAT_BOX_1      551             

Steps/sec. : 9912.4136
MOVE_BOX_0      77991           39430           50.5571         0.9262          39095           27577           70.5384         3.1416          0               0               0.0000          136446          65748           48.1861         390000          

ENERGY_BOX_0    -27640.4901     57085.4917      0.0000          -76640.9639     -8085.0180      0.0000          0.0000          0.0000          0.0000          0.0000          

STAT_BOX_0      85              

MOVE_BOX_1      136468          65831           48.2391         390000          

ENERGY_BOX_1    348721.0780     348721.0780     0.0000          0.0000          0.0000          0.0000          0.0000          0.0000          0.0000          0.0000          

STAT_BOX_1      517             

Steps/sec. : 5852.8510
MOVE_BOX_0      80050           40439           50.5172         0.7393          40149           28137           70.0814         3.1416          0               0               0.0000          139778          66816           47.8015         400000          

ENERGY_BOX_0    -93300.2994     65721.8326      0.0000          -144222.9122    -14799.2198     0.0000          0.0000          0.0000          0.0000          0.0000          

STAT_BOX_0      115             

MOVE_BOX_1      140023          66929           47.7986         400000          

ENERGY_BOX_1    297449.6106     297449.6106     0.0000          0.0000          0.0000          0.0000          0.0000          0.0000          0.0000          0.0000          

STAT_BOX_1      487             

Steps/sec. : 5355.3347
MOVE_BOX_0      82075           41459           50.5136         0.7402          41189           28740           69.7759         3.1416          0               0               0.0000          143209          68072           47.5333         410000          

ENERGY_BOX_0    -46473.3593     77100.0366      0.0000          -111701.5681    -11871.8278     0.0000          0.0000          0.0000          0.0000          0.0000          

STAT_BOX_0      103             

MOVE_BOX_1      143527          68173           47.4984         410000          

ENERGY_BOX_1    329756.8282     329756.8282     0.0000          0.0000          0.0000          0.0000          0.0000          0.0000          0.0000          0.0000          

STAT_BOX_1      499             

Steps/sec. : 5936.2403
MOVE_BOX_0      84045           42469           50.5313         0.9448          42212           29329           69.4802         3.1416          0               0               0.0000          146724          69302           47.2329         420000          

ENERGY_BOX_0    -26922.9541     65289.1777      0.0000          -83546.3353     -8665.7965      0.0000          0.0000          0.0000          0.0000          0.0000          

STAT_BOX_0      88              

MOVE_BOX_1      147019          69388           47.1966         420000          

ENERGY_BOX_1    319888.2492     319888.2492     0.0000          0.0000          0.0000          0.0000          0.0000          0.0000          0.0000          0.0000          

STAT_BOX_1      514             

Steps/sec. : 5747.4698
MOVE_BOX_0      86062           43558           50.6123         1.8391          43203           29974           69.3794         3.1416          0               0               0.0000          150297          70974           47.2225         430000          

ENERGY_BOX_0    4738.6888       8419.8543       0.0000          -3394.6929      -286.4726       0.0000          0.0000          0.0000          0.0000          0.0000          

STAT_BOX_0      16              

MOVE_BOX_1      150438          70988           47.1875         430000          

ENERGY_BOX_1    381928.7351     381928.7351     0.0000          0.0000          0.0000          0.0000          0.0000          0.0000          0.0000          0.0000          

STAT_BOX_1      586             

Steps/sec. : 8046.8965
MOVE_BOX_0      88119           44561           50.5691         1.0546          44181           30653           69.3805         3.1416          0               0               0.0000          153739          72514           47.1670         440000          

ENERGY_BOX_0    -12448.1192     49824.0161      0.0000          -56944.4162     -5327.7191      0.0000          0.0000          0.0000          0.0000          0.0000          

STAT_BOX_0      69              

MOVE_BOX_1      153961          72581           47.1425         440000          

ENERGY_BOX_1    333238.6479     333238.6479     0.0000          0.0000          0.0000          0.0000          0.0000          0.0000          0.0000          0.0000          

STAT_BOX_1      533             

Steps/sec. : 7673.2662
MOVE_BOX_0      90119           45543           50.5365         0.8398          45207           31199           69.0136         3.1416          0               0               0.0000          157210          73560           46.7909         450000          

ENERGY_BOX_0    -11312.4386     52349.2999      0.0000          -57367.1743     -6294.5642      0.0000          0.0000          0.0000          0.0000          0.0000          

STAT_BOX_0      75              

MOVE_BOX_1      157464          73633           46.7618         450000          

ENERGY_BOX_1    352145.7216     352145.7216     0.0000          0.0000          0.0000          0.0000          0.0000          0.0000          0.0000          0.0000          

STAT_BOX_1      527             

Steps/sec. : 5381.7721
MOVE_BOX_0      92128           46578           50.5579         0.9298          46173           31855           68.9905         3.1416          0               0               0.0000          160688          75237           46.8218         460000          

ENERGY_BOX_0    -30580.7707     52326.5074      0.0000          -75382.8960     -7524.3821      0.0000          0.0000          0.0000          0.0000          0.0000          

STAT_BOX_0      82              

MOVE_BOX_1      161011          75317           46.7775         460000          

ENERGY_BOX_1    328674.1210     328674.1210     0.0000          0.0000          0.0000          0.0000          0.0000          0.0000          0.0000          0.0000          

STAT_BOX_1      520             

Steps/sec. : 8074.3495
MOVE_BOX_0      94155           47620           50.5762         1.1159          47113           32527           69.0404         3.1416          0               0               0.0000          164229          76902           46.8261         470000          

ENERGY_BOX_0    -13740.2003     55541.2122      0.0000          -63153.5843     -6127.8282      0.0000          0.0000          0.0000          0.0000          0.0000          

STAT_BOX_0      74              

MOVE_BOX_1      164503          76974           46.7919         470000          

ENERGY_BOX_1    336544.1217     336544.1217     0.0000          0.0000          0.0000          0.0000          0.0000          0.0000          0.0000          0.0000          

STAT_BOX_1      528             

Steps/sec. : 8227.7166
MOVE_BOX_0      96149           48683           50.6329         1.7858          48103           33235           69.0913         3.1416          0               0               0.0000          167729          78724           46.9352         480000          

ENERGY_BOX_0    670.3201        16286.6559      0.0000          -14166.0682     -1450.2676      0.0000          0.0000          0.0000          0.0000          0.0000          

STAT_BOX_0      36              

MOVE_BOX_1      168019          78758           46.8745         480000          

ENERGY_BOX_1    358780.3765     358780.3765     0.0000          0.0000          0.0000          0.0000          0.0000          0.0000          0.0000          0.0000          

STAT_BOX_1      566             

Steps/sec. : 9629.0977
MOVE_BOX_0      98174           49730           50.6550         2.0452          49046           33957           69.2350         3.1416          0               0               0.0000          171244          80672           47.1094         490000          

ENERGY_BOX_0    -1777.4762      21110.2157      0.0000          -21097.2381     -1790.4538      0.0000          0.0000          0.0000          0.0000          0.0000          

STAT_BOX_0      40              

MOVE_BOX_1      171536          80710           47.0513         490000          

ENERGY_BOX_1    332171.0969     332171.0969     0.0000          0.0000          0.0000          0.0000          0.0000          0.0000          0.0000          0.0000          

STAT_BOX_1      562             

Steps/sec. : 12086.3422
MOVE_BOX_0      100179          50755           50.6643         1.9266          50068           34779           69.4635         3.1416          0               0               0.0000          174750          82563           47.2464         500000          

ENERGY_BOX_0    11641.0543      17563.7822      0.0000          -5429.2340      -493.4938       0.0000          0.0000          0.0000          0.0000          0.0000          

STAT_BOX_0      21              

MOVE_BOX_1      175003          82582           47.1889         500000          

ENERGY_BOX_1    395675.7847     395675.7847     0.0000          0.0000          0.0000          0.0000          0.0000          0.0000          0.0000          0.0000          

STAT_BOX_1      581             

Steps/sec. : 11168.2311
MOVE_BOX_0      102226          51865           50.7356         3.2477          51060           35546           69.6161         3.1416          0               0               0.0000          178269          84488           47.3935         510000          

ENERGY_BOX_0    5195.9012       14698.7095      0.0000          -8561.7010      -941.1073       0.0000          0.0000          0.0000          0.0000          0.0000          

STAT_BOX_0      29              

MOVE_BOX_1      178445          84515           47.3619         510000          

ENERGY_BOX_1    370993.1126     370993.1126     0.0000          0.0000          0.0000          0.0000          0.0000          0.0000          0.0000          0.0000          

STAT_BOX_1      573             

Steps/sec. : 2240.6951
MOVE_BOX_0      104277          52904           50.7341         3.1760          52079           36361           69.8189         3.1416          0               0               0.0000          181726          86463           47.5788         520000          

ENERGY_BOX_0    5578.0185       18480.8612      0.0000          -11961.7355     -941.1073       0.0000          0.0000          0.0000          0.0000          0.0000          

STAT_BOX_0      29              

MOVE_BOX_1      181918          86490           47.5434         520000          

ENERGY_BOX_1    349998.0698     349998.0698     0.0000          0.0000          0.0000          0.0000          0.0000          0.0000          0.0000          0.0000          

STAT_BOX_1      573             

Steps/sec. : 2194.9285
MOVE_BOX_0      106215          53841           50.6906         2.1416          53096           37130           69.9299         3.1416          0               0               0.0000          185256          88427           47.7323         530000          

ENERGY_BOX_0    -738.5990       17243.4627      0.0000          -16366.1771     -1615.8846      0.0000          0.0000          0.0000          0.0000          0.0000          

STAT_BOX_0      38              

MOVE_BOX_1      185433          88463           47.7062         530000          

ENERGY_BOX_1    347097.9031     347097.9031     0.0000          0.0000          0.0000          0.0000          0.0000          0.0000          0.0000          0.0000          

STAT_BOX_1      564             

Steps/sec. : 2148.0126
MOVE_BOX_0      108285          54808           50.6146         0.9146          54111           37771           69.8028         3.1416          0               0               0.0000          188720          89837           47.6033         540000          

ENERGY_BOX_0    -19165.5506     48672.1532      0.0000          -61543.1397     -6294.5642      0.0000          0.0000          0.0000          0.0000          0.0000          

STAT_BOX_0      75              

MOVE_BOX_1      188884          89910           47.6006         540000          

ENERGY_BOX_1    333410.1779     333410.1779     0.0000          0.0000          0.0000          0.0000          0.0000          0.0000          0.0000          0.0000          

STAT_BOX_1      527             

Steps/sec. : 2180.8102
MOVE_BOX_0      110279          55928           50.7150         2.7973          55184           38516           69.7956         3.1416          0               0               0.0000          192187          91539           47.6302         550000          

ENERGY_BOX_0    6010.8539       10951.2605      0.0000          -4536.4354      -403.9711       0.0000          0.0000          0.0000          0.0000          0.0000          

STAT_BOX_0      19              

MOVE_BOX_1      192350          91556           47.5986         550000          

ENERGY_BOX_1    385934.8044     385934.8044     0.0000          0.0000          0.0000          0.0000          0.0000          0.0000          0.0000          0.0000          

STAT_BOX_1      583             

Steps/sec. : 2195.9976
MOVE_BOX_0      112290          56922           50.6920         1.5575          56195           39321           69.9724         3.1416          0               0               0.0000          195695          93463           47.7595         560000          

ENERGY_BOX_0    -13381.0627     43784.6596      0.0000          -51682.4575     -5483.2648      0.0000          0.0000          0.0000          0.0000          0.0000          

STAT_BOX_0      70              

MOVE_BOX_1      195820          93531           47.7638         560000          

ENERGY_BOX_1    338243.8164     338243.8164     0.0000          0.0000          0.0000          0.0000          0.0000          0.0000          0.0000          0.0000          

STAT_BOX_1      532             

Steps/sec. : 2278.6113
MOVE_BOX_0      114273          57893           50.6620         1.0522          57202           39995           69.9189         3.1416          0               0               0.0000          199165          95092           47.7453         570000          

ENERGY_BOX_0    3212.5954       31750.8896      0.0000          -26066.3489     -2471.9453      0.0000          0.0000          0.0000          0.0000          0.0000          

STAT_BOX_0      47              

MOVE_BOX_1      199360          95137           47.7212         570000          

ENERGY_BOX_1    341631.4989     341631.4989     0.0000          0.0000          0.0000          0.0000          0.0000          0.0000          0.0000          0.0000          

STAT_BOX_1      555             

Steps/sec. : 2235.9260
MOVE_BOX_0      116262          59048           50.7887         4.2790          58214           40779           70.0502         3.1416          0               0               0.0000          202680          97099           47.9075         580000          

ENERGY_BOX_0    12863.6574      28309.5721      0.0000          -13995.6471     -1450.2676      0.0000          0.0000          0.0000          0.0000          0.0000          

STAT_BOX_0      36              

MOVE_BOX_1      202844          97133           47.8856         580000          

ENERGY_BOX_1    363342.1892     363342.1892     0.0000          0.0000          0.0000          0.0000          0.0000          0.0000          0.0000          0.0000          

STAT_BOX_1      566             

Steps/sec. : 2446.6951
MOVE_BOX_0      118277          59987           50.7174         1.6469          59222           41543           70.1479         3.1416          0               0               0.0000          206168          98946           47.9929         590000          

ENERGY_BOX_0    -13893.3488     45927.3815      0.0000          -54493.0112     -5327.7191      0.0000          0.0000          0.0000          0.0000          0.0000          

STAT_BOX_0      69              

MOVE_BOX_1      206333          99013           47.9870         590000          

ENERGY_BOX_1    339427.9405     339427.9405     0.0000          0.0000          0.0000          0.0000          0.0000          0.0000          0.0000          0.0000          

STAT_BOX_1      533             

Steps/sec. : 2199.4917
MOVE_BOX_0      120377          61005           50.6783         1.1035          60207           42097           69.9204         3.1416          0               0               0.0000          209588          100309          47.8601         600000          

ENERGY_BOX_0    -15616.2884     55822.7388      0.0000          -64804.2768     -6634.7504      0.0000          0.0000          0.0000          0.0000          0.0000          

STAT_BOX_0      77              

MOVE_BOX_1      209828          100384          47.8411         600000          

ENERGY_BOX_1    359859.8507     359859.8507     0.0000          0.0000          0.0000          0.0000          0.0000          0.0000          0.0000          0.0000          

STAT_BOX_1      525             

Steps/sec. : 1728.8781
MOVE_BOX_0      122354          62002           50.6743         1.1000          61201           42713           69.7913         3.1416          0               0               0.0000          213026          101707          47.7439         610000          

ENERGY_BOX_0    6286.3605       29625.8387      0.0000          -21173.0292     -2166.4491      0.0000          0.0000          0.0000          0.0000          0.0000          

STAT_BOX_0      44              

MOVE_BOX_1      213419          101749          47.6757         610000          

ENERGY_BOX_1    359225.8577     359225.8577     0.0000          0.0000          0.0000          0.0000          0.0000          0.0000          0.0000          0.0000          

STAT_BOX_1      558             

Steps/sec. : 1674.2813
MOVE_BOX_0      124293          63054           50.7301         2.0064          62194           43478           69.9071         3.1416          0               0               0.0000          216557          103659          47.8668         620000          

ENERGY_BOX_0    9854.7973       30263.7075      0.0000          -18706.8600     -1702.0502      0.0000          0.0000          0.0000          0.0000          0.0000          

STAT_BOX_0      39              

MOVE_BOX_1      216956          103696          47.7959         620000          

ENERGY_BOX_1    361693.7325     361693.7325     0.0000          0.0000          0.0000          0.0000          0.0000          0.0000          0.0000          0.0000          

STAT_BOX_1      563             

Steps/sec. : 2341.7114
MOVE_BOX_0      126335          64025           50.6788         1.0486          63179           44101           69.8033         3.1416          0               0               0.0000          219992          104996          47.7272         630000          

ENERGY_BOX_0    -16486.0332     38566.8375      0.0000          -50324.9537     -4727.9171      0.0000          0.0000          0.0000          0.0000          0.0000          

STAT_BOX_0      65              

MOVE_BOX_1      220494          105059          47.6471         630000          

ENERGY_BOX_1    338388.8913     338388.8913     0.0000          0.0000          0.0000          0.0000          0.0000          0.0000          0.0000          0.0000          

STAT_BOX_1      537             

Steps/sec. : 2305.2294
MOVE_BOX_0      128333          65060           50.6962         1.2936          64153           44775           69.7941         3.1416          0               0               0.0000          223406          106758          47.7865         640000          

ENERGY_BOX_0    -15153.1930     52618.2795      0.0000          -61643.6444     -6127.8282      0.0000          0.0000          0.0000          0.0000          0.0000          

STAT_BOX_0      74              

MOVE_BOX_1      224108          106830          47.6690         640000          

ENERGY_BOX_1    343417.3052     343417.3052     0.0000          0.0000          0.0000          0.0000          0.0000          0.0000          0.0000          0.0000          

STAT_BOX_1      528             

Steps/sec. : 2288.8333
MOVE_BOX_0      130340          66088           50.7043         1.2746          65155           45490           69.8181         3.1416          0               0               0.0000          226914          108505          47.8177         650000          

ENERGY_BOX_0    -18270.6549     45154.3029      0.0000          -57461.6276     -5963.3302      0.0000          0.0000          0.0000          0.0000          0.0000          

STAT_BOX_0      73              

MOVE_BOX_1      227591          108576          47.7066         650000          

ENERGY_BOX_1    363486.8273     363486.8273     0.0000          0.0000          0.0000          0.0000          0.0000          0.0000          0.0000          0.0000          

STAT_BOX_1      529             

Steps/sec. : 2379.5033
MOVE_BOX_0      132385          67112           50.6946         1.1705          66149           46116           69.7153         3.1416          0               0               0.0000          230418          110095          47.7806         660000          

ENERGY_BOX_0    6264.8634       25802.6896      0.0000          -17921.9417     -1615.8846      0.0000          0.0000          0.0000          0.0000          0.0000          

STAT_BOX_0      38              

MOVE_BOX_1      231048          110131          47.6659         660000          

ENERGY_BOX_1    339854.1522     339854.1522     0.0000          0.0000          0.0000          0.0000          0.0000          0.0000          0.0000          0.0000          

STAT_BOX_1      564             

Steps/sec. : 2164.8677
MOVE_BOX_0      134433          68203           50.7338         1.7497          67158           46874           69.7966         3.1416          0               0               0.0000          233868          111882          47.8398         670000          

ENERGY_BOX_0    9683.1718       24696.1983      0.0000          -13562.7589     -1450.2676      0.0000          0.0000          0.0000          0.0000          0.0000          

STAT_BOX_0      36              

MOVE_BOX_1      234541          111916          47.7170         670000          

ENERGY_BOX_1    366610.0312     366610.0312     0.0000          0.0000          0.0000          0.0000          0.0000          0.0000          0.0000          0.0000          

STAT_BOX_1      566             

Steps/sec. : 1758.9255
MOVE_BOX_0      136556          69320           50.7631         2.5142          68153           47647           69.9118         3.1416          0               0               0.0000          237279          113770          47.9478         680000          

ENERGY_BOX_0    6721.9608       20073.9918      0.0000          -11981.2149     -1370.8162      0.0000          0.0000          0.0000          0.0000          0.0000          

STAT_BOX_0      35              

MOVE_BOX_1      238012          113803          47.8140         680000          

ENERGY_BOX_1    361697.5057     361697.5057     0.0000          0.0000          0.0000          0.0000          0.0000          0.0000          0.0000          0.0000          

STAT_BOX_1      567             

Steps/sec. : 1761.3638
MOVE_BOX_0      138509          70225           50.7007         0.9024          69147           48384           69.9727         3.1416          0               0               0.0000          240804          115570          47.9934         690000          

ENERGY_BOX_0    -59694.0594     52876.8550      0.0000          -102041.9270    -10528.9874     0.0000          0.0000          0.0000          0.0000          0.0000          

STAT_BOX_0      97              

MOVE_BOX_1      241540          115665          47.8865         690000          

ENERGY_BOX_1    331563.0610     331563.0610     0.0000          0.0000          0.0000          0.0000          0.0000          0.0000          0.0000          0.0000          

STAT_BOX_1      505             

Steps/sec. : 1682.1611
MOVE_BOX_0      140529          71229           50.6863         0.8340          70113           48931           69.7888         3.1416          0               0               0.0000          244315          116807          47.8100         700000          

ENERGY_BOX_0    -40949.8818     57838.5795      0.0000          -89316.9606     -9471.5007      0.0000          0.0000          0.0000          0.0000          0.0000          

STAT_BOX_0      92              

MOVE_BOX_1      245043          116897          47.7047         700000          

ENERGY_BOX_1    324090.1272     324090.1272     0.0000          0.0000          0.0000          0.0000          0.0000          0.0000          0.0000          0.0000          

STAT_BOX_1      510             

Steps/sec. : 1467.5181
MOVE_BOX_0      142546          72242           50.6798         0.8224          71080           49510           69.6539         3.1416          0               0               0.0000          247833          118000          47.6127         710000          

ENERGY_BOX_0    -51392.6318     61376.9784      0.0000          -101579.2739    -11190.3363     0.0000          0.0000          0.0000          0.0000          0.0000          

STAT_BOX_0      100             

MOVE_BOX_1      248541          118098          47.5165         710000          

ENERGY_BOX_1    329720.2317     329720.2317     0.0000          0.0000          0.0000          0.0000          0.0000          0.0000          0.0000          0.0000          

STAT_BOX_1      502             

Steps/sec. : 1393.7228
MOVE_BOX_0      144538          73268           50.6912         1.0805          72062           50093           69.5138         3.1416          0               0               0.0000          251380          119302          47.4588         720000          

ENERGY_BOX_0    -14857.5025     37353.5963      0.0000          -47627.5370     -4583.5618      0.0000          0.0000          0.0000          0.0000          0.0000          

STAT_BOX_0      64              

MOVE_BOX_1      252020          119364          47.3629         720000          

ENERGY_BOX_1    346947.7812     346947.7812     0.0000          0.0000          0.0000          0.0000          0.0000          0.0000          0.0000          0.0000          

STAT_BOX_1      538             

Steps/sec. : 1370.7985
MOVE_BOX_0      146503          74356           50.7539         2.5978          73044           50780           69.5197         3.1416          0               0               0.0000          254954          121003          47.4607         730000          

ENERGY_BOX_0    9746.3366       15510.7713      0.0000          -5270.9409      -493.4938       0.0000          0.0000          0.0000          0.0000          0.0000          

STAT_BOX_0      21              

MOVE_BOX_1      255499          121022          47.3669         730000          

ENERGY_BOX_1    383766.2618     383766.2618     0.0000          0.0000          0.0000          0.0000          0.0000          0.0000          0.0000          0.0000          

STAT_BOX_1      581             

Steps/sec. : 1518.9390
MOVE_BOX_0      148564          75361           50.7263         1.5215          74061           51584           69.6507         3.1416          0               0               0.0000          258432          122936          47.5700         740000          

ENERGY_BOX_0    -5822.2158      33019.8939      0.0000          -35077.6806     -3764.4291      0.0000          0.0000          0.0000          0.0000          0.0000          

STAT_BOX_0      58              

MOVE_BOX_1      258943          122992          47.4977         740000          

ENERGY_BOX_1    334065.5116     334065.5116     0.0000          0.0000          0.0000          0.0000          0.0000          0.0000          0.0000          0.0000          

STAT_BOX_1      544             

Steps/sec. : 1707.8430
MOVE_BOX_0      150532          76408           50.7586         2.5129          75042           52355           69.7676         3.1416          0               0               0.0000          261975          124935          47.6897         750000          

ENERGY_BOX_0    12268.3254      25203.4495      0.0000          -11927.9938     -1007.1303      0.0000          0.0000          0.0000          0.0000          0.0000          

STAT_BOX_0      30              

MOVE_BOX_1      262451          124963          47.6138         750000          

ENERGY_BOX_1    370954.5587     370954.5587     0.0000          0.0000          0.0000          0.0000          0.0000          0.0000          0.0000          0.0000          

STAT_BOX_1      572             

Steps/sec. : 1695.7416
MOVE_BOX_0      152502          77381           50.7410         2.0360          76061           53084           69.7914         3.1416          0               0               0.0000          265476          126769          47.7516         760000          

ENERGY_BOX_0    10353.1375      15697.0452      0.0000          -4850.4139      -493.4938       0.0000          0.0000          0.0000          0.0000          0.0000          

STAT_BOX_0      21              

MOVE_BOX_1      265961          126788          47.6717         760000          

ENERGY_BOX_1    382114.9048     382114.9048     0.0000          0.0000          0.0000          0.0000          0.0000          0.0000          0.0000          0.0000          

STAT_BOX_1      581             

Steps/sec. : 2155.5153
MOVE_BOX_0      154562          78431           50.7440         2.2941          77051           53847           69.8849         3.1416          0               0               0.0000          268923          128670          47.8464         770000          

ENERGY_BOX_0    5607.6458       12140.6339      0.0000          -5941.0193      -591.9688       0.0000          0.0000          0.0000          0.0000          0.0000          

STAT_BOX_0      23              

MOVE_BOX_1      269464          128691          47.7581         770000          

ENERGY_BOX_1    370577.3075     370577.3075     0.0000          0.0000          0.0000          0.0000          0.0000          0.0000          0.0000          0.0000          

STAT_BOX_1      579             

Steps/sec. : 1408.5056
MOVE_BOX_0      156581          79512           50.7801         4.2842          78020           54638           70.0308         3.1416          0               0               0.0000          272535          130761          47.9795         780000          

ENERGY_BOX_0    4255.5796       11233.8902      0.0000          -6484.8168      -493.4938       0.0000          0.0000          0.0000          0.0000          0.0000          

STAT_BOX_0      21              

MOVE_BOX_1      272864          130780          47.9286         780000          

ENERGY_BOX_1    357976.4150     357976.4150     0.0000          0.0000          0.0000          0.0000          0.0000          0.0000          0.0000          0.0000          

STAT_BOX_1      581             

Steps/sec. : 1075.9642
MOVE_BOX_0      158516          80383           50.7097         1.3267          79047           55420           70.1102         3.1416          0               0               0.0000          276066          132618          48.0385         790000          

ENERGY_BOX_0    -19027.7164     47155.1526      0.0000          -59548.1186     -6634.7504      0.0000          0.0000          0.0000          0.0000          0.0000          

STAT_BOX_0      77              

MOVE_BOX_1      276371          132693          48.0126         790000          

ENERGY_BOX_1    329551.4230     329551.4230     0.0000          0.0000          0.0000          0.0000          0.0000          0.0000          0.0000          0.0000          

STAT_BOX_1      525             

Steps/sec. : 2397.6279
MOVE_BOX_0      160523          81357           50.6825         0.8594          80043           55965           69.9187         3.1416          0               0               0.0000          279487          133736          47.8505         800000          

ENERGY_BOX_0    -37476.6389     59654.1185      0.0000          -87659.2567     -9471.5007      0.0000          0.0000          0.0000          0.0000          0.0000          

STAT_BOX_0      92              

MOVE_BOX_1      279947          133826          47.8040         800000          

ENERGY_BOX_1    347896.1708     347896.1708     0.0000          0.0000          0.0000          0.0000          0.0000          0.0000          0.0000          0.0000          

STAT_BOX_1      510             

Steps/sec. : 1885.6425
MOVE_BOX_0      162520          82403           50.7033         1.3087          81052           56556           69.7774         3.1416          0               0               0.0000          282949          135123          47.7552         810000          

ENERGY_BOX_0    6473.6969       34522.7806      0.0000          -26075.1084     -1973.9753      0.0000          0.0000          0.0000          0.0000          0.0000          

STAT_BOX_0      42              

MOVE_BOX_1      283479          135163          47.6801         810000          

ENERGY_BOX_1    376826.1715     376826.1715     0.0000          0.0000          0.0000          0.0000          0.0000          0.0000          0.0000          0.0000          

STAT_BOX_1      560             

Steps/sec. : 1900.4568
MOVE_BOX_0      164589          83483           50.7221         1.3923          82028           57344           69.9078         3.1416          0               0               0.0000          286487          137107          47.8580         820000          

ENERGY_BOX_0    -8054.7948      47519.3710      0.0000          -50090.9010     -5483.2648      0.0000          0.0000          0.0000          0.0000          0.0000          

STAT_BOX_0      70              

MOVE_BOX_1      286896          137175          47.8135         820000          

ENERGY_BOX_1    358757.1380     358757.1380     0.0000          0.0000          0.0000          0.0000          0.0000          0.0000          0.0000          0.0000          

STAT_BOX_1      532             

Steps/sec. : 2300.9812
MOVE_BOX_0      166604          84550           50.7491         2.3335          83021           58104           69.9871         3.1416          0               0               0.0000          290013          139029          47.9389         830000          

ENERGY_BOX_0    11458.7715      22385.2950      0.0000          -9985.4163      -941.1073       0.0000          0.0000          0.0000          0.0000          0.0000          

STAT_BOX_0      29              

MOVE_BOX_1      290362          139056          47.8906         830000          

ENERGY_BOX_1    381802.3213     381802.3213     0.0000          0.0000          0.0000          0.0000          0.0000          0.0000          0.0000          0.0000          

STAT_BOX_1      573             

Steps/sec. : 2295.7843
MOVE_BOX_0      168601          85565           50.7500         2.3261          84037           58877           70.0608         3.1416          0               0               0.0000          293538          140982          48.0285         840000          

ENERGY_BOX_0    5121.4839       14440.2136      0.0000          -8726.7609      -591.9688       0.0000          0.0000          0.0000          0.0000          0.0000          

STAT_BOX_0      23              

MOVE_BOX_1      293824          141003          47.9889         840000          

ENERGY_BOX_1    366306.0025     366306.0025     0.0000          0.0000          0.0000          0.0000          0.0000          0.0000          0.0000          0.0000          

STAT_BOX_1      579             

Steps/sec. : 2145.9664
MOVE_BOX_0      170570          86510           50.7182         1.1246          85021           59619           70.1227         3.1416          0               0               0.0000          297089          142886          48.0954         850000          

ENERGY_BOX_0    -7656.9774      59577.6939      0.0000          -60250.7824     -6983.8889      0.0000          0.0000          0.0000          0.0000          0.0000          

STAT_BOX_0      79              

MOVE_BOX_1      297320          142963          48.0839         850000          

ENERGY_BOX_1    343172.7087     343172.7087     0.0000          0.0000          0.0000          0.0000          0.0000          0.0000          0.0000          0.0000          

STAT_BOX_1      523             

Steps/sec. : 2393.3174
MOVE_BOX_0      172650          87561           50.7159         1.0767          86016           60193           69.9788         3.1416          0               0               0.0000          300518          144289          48.0134         860000          

ENERGY_BOX_0    -24302.1124     55116.4953      0.0000          -71894.2256     -7524.3821      0.0000          0.0000          0.0000          0.0000          0.0000          

STAT_BOX_0      82              

MOVE_BOX_1      300816          144369          47.9925         860000          

ENERGY_BOX_1    338893.3034     338893.3034     0.0000          0.0000          0.0000          0.0000          0.0000          0.0000          0.0000          0.0000          

STAT_BOX_1      520             

Steps/sec. : 1950.2016
MOVE_BOX_0      174618          88615           50.7479         1.8407          87019           60967           70.0617         3.1416          0               0               0.0000          304057          146188          48.0791         870000          

ENERGY_BOX_0    3993.4155       19021.0774      0.0000          -13881.7714     -1145.8904      0.0000          0.0000          0.0000          0.0000          0.0000          

STAT_BOX_0      32              

MOVE_BOX_1      304306          146218          48.0497         870000          

ENERGY_BOX_1    358395.5201     358395.5201     0.0000          0.0000          0.0000          0.0000          0.0000          0.0000          0.0000          0.0000          

STAT_BOX_1      570             

Steps/sec. : 2308.8466
MOVE_BOX_0      176621          89681           50.7760         2.8254          88015           61780           70.1926         3.1416          0               0               0.0000          307571          148159          48.1707         880000          

ENERGY_BOX_0    4172.8674       31488.2670      0.0000          -24843.4543     -2471.9453      0.0000          0.0000          0.0000          0.0000          0.0000          

STAT_BOX_0      47              

MOVE_BOX_1      307793          148204          48.1505         880000          

ENERGY_BOX_1    356885.2626     356885.2626     0.0000          0.0000          0.0000          0.0000          0.0000          0.0000          0.0000          0.0000          

STAT_BOX_1      555             

Steps/sec. : 2314.3230
MOVE_BOX_0      178555          90667           50.7782         3.2333          89046           62602           70.3030         3.1416          0               0               0.0000          311122          150172          48.2679         890000          

ENERGY_BOX_0    6496.4797       10582.0837      0.0000          -3799.1314      -286.4726       0.0000          0.0000          0.0000          0.0000          0.0000          

STAT_BOX_0      16              

MOVE_BOX_1      311277          150186          48.2483         890000          

ENERGY_BOX_1    363532.1946     363532.1946     0.0000          0.0000          0.0000          0.0000          0.0000          0.0000          0.0000          0.0000          

STAT_BOX_1      586             

Steps/sec. : 2374.6246
MOVE_BOX_0      180581          91644           50.7495         2.0236          90094           63442           70.4176         3.1416          0               0               0.0000          314634          152089          48.3384         900000          

ENERGY_BOX_0    7796.8364       31530.9467      0.0000          -21760.1349     -1973.9753      0.0000          0.0000          0.0000          0.0000          0.0000          

STAT_BOX_0      42              

MOVE_BOX_1      314691          152129          48.3423         900000          

ENERGY_BOX_1    356194.8646     356194.8646     0.0000          0.0000          0.0000          0.0000          0.0000          0.0000          0.0000          0.0000          

STAT_BOX_1      560             

Steps/sec. : 2353.7464
MOVE_BOX_0      182653          92681           50.7416         1.6026          91101           64235           70.5097         3.1416          0               0               0.0000          318112          154004          48.4119         910000          

ENERGY_BOX_0    128.1220        41971.9663      0.0000          -37815.3232     -4028.5211      0.0000          0.0000          0.0000          0.0000          0.0000          

STAT_BOX_0      60              

MOVE_BOX_1      318134          154062          48.4268         910000          

ENERGY_BOX_1    341817.9404     341817.9404     0.0000          0.0000          0.0000          0.0000          0.0000          0.0000          0.0000          0.0000          

STAT_BOX_1      542             

Steps/sec. : 2296.1380
MOVE_BOX_0      184657          93719           50.7530         1.9778          92154           65056           70.5949         3.1416          0               0               0.0000          321662          155901          48.4673         920000          

ENERGY_BOX_0    11722.9825      17830.4586      0.0000          -5659.8626      -447.6135       0.0000          0.0000          0.0000          0.0000          0.0000          

STAT_BOX_0      20              

MOVE_BOX_1      321527          155919          48.4933         920000          

ENERGY_BOX_1    369815.3123     369815.3123     0.0000          0.0000          0.0000          0.0000          0.0000          0.0000          0.0000          0.0000          

STAT_BOX_1      582             

Steps/sec. : 2268.9417
MOVE_BOX_0      186671          94758           50.7620         2.5924          93142           65873           70.7232         3.1416          0               0               0.0000          325202          157901          48.5547         930000          

ENERGY_BOX_0    5357.9335       15101.8131      0.0000          -8736.7493      -1007.1303      0.0000          0.0000          0.0000          0.0000          0.0000          

STAT_BOX_0      30              

MOVE_BOX_1      324985          157929          48.5958         930000          

ENERGY_BOX_1    381597.6678     381597.6678     0.0000          0.0000          0.0000          0.0000          0.0000          0.0000          0.0000          0.0000          

STAT_BOX_1      572             

Steps/sec. : 2377.6322
MOVE_BOX_0      188592          95685           50.7365         1.5028          94118           66617           70.7803         3.1416          0               0               0.0000          328751          159760          48.5960         940000          

ENERGY_BOX_0    20.1256         42830.7238      0.0000          -39046.1691     -3764.4291      0.0000          0.0000          0.0000          0.0000          0.0000          

STAT_BOX_0      58              

MOVE_BOX_1      328539          159816          48.6445         940000          

ENERGY_BOX_1    357920.7778     357920.7778     0.0000          0.0000          0.0000          0.0000          0.0000          0.0000          0.0000          0.0000          

STAT_BOX_1      544             

Steps/sec. : 2278.5402
MOVE_BOX_0      190594          96765           50.7702         2.7235          95121           67400           70.8571         3.1416          0               0               0.0000          332280          161727          48.6719         950000          

ENERGY_BOX_0    8677.7996       24704.6089      0.0000          -14494.8523     -1531.9570      0.0000          0.0000          0.0000          0.0000          0.0000          

STAT_BOX_0      37              

MOVE_BOX_1      332005          161762          48.7228         950000          

ENERGY_BOX_1    374745.5338     374745.5338     0.0000          0.0000          0.0000          0.0000          0.0000          0.0000          0.0000          0.0000          

STAT_BOX_1      565             

Steps/sec. : 2341.2278
MOVE_BOX_0      192521          97634           50.7134         0.8361          96141           68123           70.8574         3.1416          0               0               0.0000          335766          163400          48.6648         960000          

ENERGY_BOX_0    -41317.4796     54821.8955      0.0000          -87275.5097     -8863.8654      0.0000          0.0000          0.0000          0.0000          0.0000          

STAT_BOX_0      89              

MOVE_BOX_1      335572          163487          48.7189         960000          

ENERGY_BOX_1    332378.7358     332378.7358     0.0000          0.0000          0.0000          0.0000          0.0000          0.0000          0.0000          0.0000          

STAT_BOX_1      513             

Steps/sec. : 2030.4214
MOVE_BOX_0      194479          98703           50.7525         1.8437          97094           68774           70.8324         3.1416          0               0               0.0000          339310          165204          48.6882         970000          

ENERGY_BOX_0    -1845.7469      17845.9142      0.0000          -18320.8448     -1370.8162      0.0000          0.0000          0.0000          0.0000          0.0000          

STAT_BOX_0      35              

MOVE_BOX_1      339117          165237          48.7257         970000          

ENERGY_BOX_1    383157.8672     383157.8672     0.0000          0.0000          0.0000          0.0000          0.0000          0.0000          0.0000          0.0000          

STAT_BOX_1      567             

Steps/sec. : 2147.4559
MOVE_BOX_0      196460          99693           50.7447         1.5103          98087           69520           70.8759         3.1416          0               0               0.0000          342827          167104          48.7430         980000          

ENERGY_BOX_0    4135.0788       25359.8937      0.0000          -19343.7194     -1881.0955      0.0000          0.0000          0.0000          0.0000          0.0000          

STAT_BOX_0      41              

MOVE_BOX_1      342626          167143          48.7829         980000          

ENERGY_BOX_1    363099.8285     363099.8285     0.0000          0.0000          0.0000          0.0000          0.0000          0.0000          0.0000          0.0000          

STAT_BOX_1      561             

Steps/sec. : 2273.5509
MOVE_BOX_0      198528          100727          50.7369         1.4141          99041           70244           70.9242         3.1416          0               0               0.0000          346317          168892          48.7680         990000          

ENERGY_BOX_0    -578.0840       34589.6976      0.0000          -31904.6795     -3263.1021      0.0000          0.0000          0.0000          0.0000          0.0000          

STAT_BOX_0      54              

MOVE_BOX_1      346114          168944          48.8117         990000          

ENERGY_BOX_1    349719.6538     349719.6538     0.0000          0.0000          0.0000          0.0000          0.0000          0.0000          0.0000          0.0000          

STAT_BOX_1      548             

Steps/sec. : 2200.8413
MOVE_BOX_0      200508          101763          50.7526         1.7978          100072          71053           71.0019         3.1416          0               0               0.0000          349902          170840          48.8251         1000000         

ENERGY_BOX_0    -10698.6688     40366.7948      0.0000          -46624.0191     -4441.4445      0.0000          0.0000          0.0000          0.0000          0.0000          

STAT_BOX_0      63              

MOVE_BOX_1      349518          170901          48.8962         1000000         

ENERGY_BOX_1    337828.6440     337828.6440     0.0000          0.0000          0.0000          0.0000          0.0000          0.0000          0.0000          0.0000          

STAT_BOX_1      539             

Simulation Time (total): 312.2425sec.
GOMC Serial Version 1.9
Completed at: Fri Dec  9 11:37:18 2016
On hostname: potoff39.eng.wayne.edu
