GOMC Serial Version 1.9
Started at: Sat Apr 22 21:44:50 2017
On hostname: potoff39.eng.wayne.edu

Total number of CPUs: 4
Total number of CPUs available: 4
Model name: Intel(R) Core(TM) i5-2500K CPU @ 3.30GHz

System name: Linux
Release: 2.6.32-642.4.2.el6.x86_64
Version: #1 SMP Tue Aug 23 19:58:13 UTC 2016
Kernel Architecture: x86_64
Total Ram: 7856.3MB
Used Ram: 5239.3MB
Working in the current directory /home3/soroush/Desktop/validation/GOMC_Examples/GCMC/isobutane/run2a_bridge

------------------------------------------------------
This code was compiled to support the grand canonical ensemble.
------------------------------------------------------

REMINDER: CHARMM force field has been selected!
Temperature of system has been set to 410.00000 K 
Warning: Pressure calculation is turned off.
By default intra box swap frequency has been set to zero
Warning: Electrostatic energy would not be calculated!
Reading from CHARMM-Style Parameter File file: ./../../../common/Par_TraPPE_Alkanes_CHARMM.inp
Finished reading CHARMM-Style Parameter File file: ./../../../common/Par_TraPPE_Alkanes_CHARMM.inp
Reading from Box 1 PDB coordinate file file: ./STEP3_START_ISB_vap_BOX_0.pdb
Finished reading Box 1 PDB coordinate file file: ./STEP3_START_ISB_vap_BOX_0.pdb
Reading from Box 2 PDB coordinate file file: ./STEP3_START_ISB_reservoir_BOX_1.pdb
Finished reading Box 2 PDB coordinate file file: ./STEP3_START_ISB_reservoir_BOX_1.pdb
Random number seed: 2018226010

Molecules in PSF:
Molecule Kind: ISB
Idx	name	type	charge	mass
0	C1	CH1	0.0000	13.0190
1	C2	CH3	0.0000	15.0350
2	C3	CH3	0.0000	15.0350
3	C4	CH3	0.0000	15.0350
Bonds:
[0 1] [0 2] [0 3] 
Angles:
[1 0 3] [1 0 2] [2 0 3] 
Dihedrals:

REMINDER! 1-3 and 1-4 Interaction is OFF
Minimum coordinates in box 0: x =    1.000, y =   20.816, z =   25.283
Maximum coordinates in box 0: x =    5.215, y =   28.682, z =   29.000
Minimum coordinates in box 1: x =    1.000, y =    1.000, z =    1.000
Maximum coordinates in box 1: x =   29.000, y =   29.000, z =   29.000

###############################################################################
########################## INITIAL SIMULATION ENERGY ##########################

ETITLE:     STEP           TOTAL        INTRA(B)       INTRA(NB)       INTER(LJ)             LRC     TOTAL_ELECT            REAL           RECIP            SELF            CORR

ENER_0:        0        206.4495        364.4544          0.0000       -153.5288         -4.4761          0.0000          0.0000          0.0000          0.0000         -0.0000

ENER_1:        0     109688.7579     109688.7579          0.0000          0.0000          0.0000          0.0000          0.0000          0.0000          0.0000         -0.0000

###############################################################################
############################# STARTING SIMULATION #############################

MTITLE:     STEP          DISTRY       DISACCEPT      DISACCEPT%          DISMAX          ROTATE       ROTACCEPT      ROTACCEPT%          ROTMAX       INTRASWAP       INTACCEPT      INTACCEPT%        TRANSFER      TRANACCEPT     TRANACCEPT%

ETITLE:     STEP           TOTAL        INTRA(B)       INTRA(NB)       INTER(LJ)             LRC     TOTAL_ELECT            REAL           RECIP            SELF            CORR

STITLE:     STEP        TOTALMOL

Printed combined psf to file ISB_410_00_K_u_3135_r1a_merged.psf
MOVE_0:    10000            1924             886         46.0499          2.2351            1012             790         78.0632         15.0000               0               0          0.0000            3478            1870         53.7665

ENER_0:    10000       6190.3884       8704.4147          0.0000      -2294.6957       -219.3306          0.0000          0.0000          0.0000          0.0000          0.0000

STAT_0:    10000              14

MOVE_1:    10000            3586            1882         52.4819

ENER_1:    10000     363442.1856     363442.1856          0.0000          0.0000          0.0000          0.0000          0.0000          0.0000          0.0000          0.0000

STAT_1:    10000             588

Steps/sec. : 8109.0109
MOVE_0:    20000            3907            1915         49.0146          2.7604            1962            1552         79.1030         15.0000               0               0          0.0000            7006            3818         54.4961

ENER_0:    20000       4706.6530      21402.2567          0.0000     -15079.7191      -1615.8846          0.0000          0.0000          0.0000          0.0000          0.0000

STAT_0:    20000              38

MOVE_1:    20000            7125            3854         54.0912

ENER_1:    20000     343997.1455     343997.1455          0.0000          0.0000          0.0000          0.0000          0.0000          0.0000          0.0000          0.0000

STAT_1:    20000             564

Steps/sec. : 9049.2503
MOVE_0:    30000            5997            2936         48.9578          1.6812            2980            2337         78.4228         15.0000               0               0          0.0000           10470            5736         54.7851

ENER_0:    30000       2689.9153      34477.6527          0.0000     -28877.1310      -2910.6065          0.0000          0.0000          0.0000          0.0000          0.0000

STAT_0:    30000              51

MOVE_1:    30000           10553            5785         54.8185

ENER_1:    30000     327411.4623     327411.4623          0.0000          0.0000          0.0000          0.0000          0.0000          0.0000          0.0000          0.0000

STAT_1:    30000             551

Steps/sec. : 9174.4712
MOVE_0:    40000            7973            3998         50.1442          3.0134            3984            3151         79.0914         15.0000               0               0          0.0000           14022            7721         55.0635

ENER_0:    40000       3735.6957       3823.2154          0.0000        -47.2345        -40.2852          0.0000          0.0000          0.0000          0.0000          0.0000

STAT_0:    40000               6

MOVE_1:    40000           14021            7725         55.0959

ENER_1:    40000     390810.1589     390810.1589          0.0000          0.0000          0.0000          0.0000          0.0000          0.0000          0.0000          0.0000

STAT_1:    40000             596

Steps/sec. : 8953.3609
MOVE_0:    50000            9964            4881         48.9864          0.6962            4985            3753         75.2859         13.8000               0               0          0.0000           17392            9124         52.4609

ENER_0:    50000     -72652.1735      58460.2338          0.0000    -119008.9395     -12103.4678          0.0000          0.0000          0.0000          0.0000          0.0000

STAT_0:    50000             104

MOVE_1:    50000           17659            9226         52.2453

ENER_1:    50000     331588.2551     331588.2551          0.0000          0.0000          0.0000          0.0000          0.0000          0.0000          0.0000          0.0000

STAT_1:    50000             498

Steps/sec. : 5238.7977
MOVE_0:    60000           11943            5881         49.2422          0.7652            5915            4254         71.9189         15.0000               0               0          0.0000           20936           10274         49.0734

ENER_0:    60000     -44047.1059      64475.0616          0.0000     -98422.8890     -10099.2785          0.0000          0.0000          0.0000          0.0000          0.0000

STAT_0:    60000              95

MOVE_1:    60000           21206           10367         48.8871

ENER_1:    60000     326612.3359     326612.3359          0.0000          0.0000          0.0000          0.0000          0.0000          0.0000          0.0000          0.0000

STAT_1:    60000             507

Steps/sec. : 4267.8706
MOVE_0:    70000           13890            6856         49.3593          0.7085            6874            4769         69.3774         13.4167               0               0          0.0000           24487           11480         46.8820

ENER_0:    70000     -62816.5407      70999.1471          0.0000    -121242.2259     -12573.4619          0.0000          0.0000          0.0000          0.0000          0.0000

STAT_0:    70000             106

MOVE_1:    70000           24749           11584         46.8059

ENER_1:    70000     338205.4071     338205.4071          0.0000          0.0000          0.0000          0.0000          0.0000          0.0000          0.0000          0.0000

STAT_1:    70000             496

Steps/sec. : 4350.7541
MOVE_0:    80000           15839            7962         50.2683          2.4248            7907            5453         68.9642         15.0000               0               0          0.0000           28016           12996         46.3878

ENER_0:    80000      11925.0961      18639.4668          0.0000      -5957.9039       -756.4667          0.0000          0.0000          0.0000          0.0000          0.0000

STAT_0:    80000              26

MOVE_1:    80000           28238           13020         46.1081

ENER_1:    80000     381912.3221     381912.3221          0.0000          0.0000          0.0000          0.0000          0.0000          0.0000          0.0000          0.0000

STAT_1:    80000             576

Steps/sec. : 5548.3646
MOVE_0:    90000           17828            8942         50.1571          1.9119            8937            6221         69.6095         15.0000               0               0          0.0000           31477           14868         47.2345

ENER_0:    90000       8842.1434      30503.7840          0.0000     -19495.1915      -2166.4491          0.0000          0.0000          0.0000          0.0000          0.0000

STAT_0:    90000              44

MOVE_1:    90000           31758           14910         46.9488

ENER_1:    90000     349796.9065     349796.9065          0.0000          0.0000          0.0000          0.0000          0.0000          0.0000          0.0000          0.0000

STAT_1:    90000             558

Steps/sec. : 8452.2773
MOVE_0:   100000           19872            9961         50.1258          1.4950            9929            6961         70.1078         15.0000               0               0          0.0000           34882           16679         47.8155

ENER_0:   100000     -17825.4806      38975.6478          0.0000     -51626.7169      -5174.4115          0.0000          0.0000          0.0000          0.0000          0.0000

STAT_0:   100000              68

MOVE_1:   100000           35317           16745         47.4134

ENER_1:   100000     323017.0421     323017.0421          0.0000          0.0000          0.0000          0.0000          0.0000          0.0000          0.0000          0.0000

STAT_1:   100000             534

Steps/sec. : 7590.2256
MOVE_0:   110000           21849           11019         50.4325          2.3143           10974            7737         70.5030         15.0000               0               0          0.0000           38430           18530         48.2175

ENER_0:   110000      16285.6625      31605.0706          0.0000     -14100.7804      -1218.6276          0.0000          0.0000          0.0000          0.0000          0.0000

STAT_0:   110000              33

MOVE_1:   110000           38747           18561         47.9031

ENER_1:   110000     365441.1911     365441.1911          0.0000          0.0000          0.0000          0.0000          0.0000          0.0000          0.0000          0.0000

STAT_1:   110000             569

Steps/sec. : 7811.6446
MOVE_0:   120000           23809           12013         50.4557          2.0677           11941            8492         71.1163         15.0000               0               0          0.0000           41988           20414         48.6187

ENER_0:   120000      -2866.9301      36553.4022          0.0000     -35911.0428      -3509.2895          0.0000          0.0000          0.0000          0.0000          0.0000

STAT_0:   120000              56

MOVE_1:   120000           42262           20468         48.4312

ENER_1:   120000     346284.4755     346284.4755          0.0000          0.0000          0.0000          0.0000          0.0000          0.0000          0.0000          0.0000

STAT_1:   120000             546

Steps/sec. : 8079.8090
MOVE_0:   130000           25868           13066         50.5103          2.0475           12930            9232         71.3998         15.0000               0               0          0.0000           45478           22227         48.8742

ENER_0:   130000       5272.0420      20469.5067          0.0000     -14122.0734      -1075.3913          0.0000          0.0000          0.0000          0.0000          0.0000

STAT_0:   130000              31

MOVE_1:   130000           45724           22256         48.6747

ENER_1:   130000     355054.4256     355054.4256          0.0000          0.0000          0.0000          0.0000          0.0000          0.0000          0.0000          0.0000

STAT_1:   130000             571

Steps/sec. : 7812.2630
MOVE_0:   140000           27910           14088         50.4765          2.0117           13990           10083         72.0729         15.0000               0               0          0.0000           48890           24250         49.6011

ENER_0:   140000        348.0966      33153.4831          0.0000     -29542.2844      -3263.1021          0.0000          0.0000          0.0000          0.0000          0.0000

STAT_0:   140000              54

MOVE_1:   140000           49210           24302         49.3843

ENER_1:   140000     336222.8972     336222.8972          0.0000          0.0000          0.0000          0.0000          0.0000          0.0000          0.0000          0.0000

STAT_1:   140000             548

Steps/sec. : 9638.4887
MOVE_0:   150000           29944           15098         50.4208          1.5799           14990           10871         72.5217         15.0000               0               0          0.0000           52314           26162         50.0096

ENER_0:   150000       1023.0875      30304.8537          0.0000     -26484.1822      -2797.5841          0.0000          0.0000          0.0000          0.0000          0.0000

STAT_0:   150000              50

MOVE_1:   150000           52752           26210         49.6853

ENER_1:   150000     342691.2177     342691.2177          0.0000          0.0000          0.0000          0.0000          0.0000          0.0000          0.0000          0.0000

STAT_1:   150000             552

Steps/sec. : 8524.8435
MOVE_0:   160000           31940           16103         50.4164          1.4934           16050           11657         72.6293         15.0000               0               0          0.0000           55775           27957         50.1246

ENER_0:   160000      -2534.5362      26495.8743          0.0000     -26764.3674      -2266.0431          0.0000          0.0000          0.0000          0.0000          0.0000

STAT_0:   160000              45

MOVE_1:   160000           56235           28000         49.7911

ENER_1:   160000     353661.8506     353661.8506          0.0000          0.0000          0.0000          0.0000          0.0000          0.0000          0.0000          0.0000

STAT_1:   160000             557

Steps/sec. : 7473.5735
MOVE_0:   170000           33866           17127         50.5728          2.5535           17045           12439         72.9774         15.0000               0               0          0.0000           59323           29896         50.3953

ENER_0:   170000       8687.3862      25347.0340          0.0000     -15288.8316      -1370.8162          0.0000          0.0000          0.0000          0.0000          0.0000

STAT_0:   170000              35

MOVE_1:   170000           59766           29929         50.0770

ENER_1:   170000     357497.0411     357497.0411          0.0000          0.0000          0.0000          0.0000          0.0000          0.0000          0.0000          0.0000

STAT_1:   170000             567

Steps/sec. : 8532.0957
MOVE_0:   180000           35878           18170         50.6438          2.0842           18014           13196         73.2541         15.0000               0               0          0.0000           62854           31816         50.6189

ENER_0:   180000       7484.1218      13378.9521          0.0000      -5447.2168       -447.6135          0.0000          0.0000          0.0000          0.0000          0.0000

STAT_0:   180000              20

MOVE_1:   180000           63254           31834         50.3273

ENER_1:   180000     360121.2169     360121.2169          0.0000          0.0000          0.0000          0.0000          0.0000          0.0000          0.0000          0.0000

STAT_1:   180000             582

Steps/sec. : 8314.5701
MOVE_0:   190000           37879           19130         50.5029          0.9490           18990           13933         73.3702         15.0000               0               0          0.0000           66361           33668         50.7346

ENER_0:   190000     -28935.5863      67907.5607          0.0000     -87576.4295      -9266.7175          0.0000          0.0000          0.0000          0.0000          0.0000

STAT_0:   190000              91

MOVE_1:   190000           66770           33757         50.5571

ENER_1:   190000     350453.8217     350453.8217          0.0000          0.0000          0.0000          0.0000          0.0000          0.0000          0.0000          0.0000

STAT_1:   190000             511

Steps/sec. : 8134.7312
MOVE_0:   200000           39823           20190         50.6993          2.0654           19980           14575         72.9479         15.0000               0               0          0.0000           69890           35239         50.4207

ENER_0:   200000       3287.8813      25865.1731          0.0000     -20786.8380      -1790.4538          0.0000          0.0000          0.0000          0.0000          0.0000

STAT_0:   200000              40

MOVE_1:   200000           70307           35277         50.1757

ENER_1:   200000     388335.8106     388335.8106          0.0000          0.0000          0.0000          0.0000          0.0000          0.0000          0.0000          0.0000

STAT_1:   200000             562

Steps/sec. : 5583.7349
MOVE_0:   210000           41887           21239         50.7055          1.9101           21019           15429         73.4050         15.0000               0               0          0.0000           73376           37218         50.7223

ENER_0:   210000      13169.1491      20423.0791          0.0000      -6438.1545       -815.7755          0.0000          0.0000          0.0000          0.0000          0.0000

STAT_0:   210000              27

MOVE_1:   210000           73718           37243         50.5209

ENER_1:   210000     377693.2630     377693.2630          0.0000          0.0000          0.0000          0.0000          0.0000          0.0000          0.0000          0.0000

STAT_1:   210000             575

Steps/sec. : 9628.9474
MOVE_0:   220000           43941           22325         50.8068          3.0143           21943           16161         73.6499         15.0000               0               0          0.0000           76924           39236         51.0062

ENER_0:   220000      14003.2361      27540.1260          0.0000     -12086.6223      -1450.2676          0.0000          0.0000          0.0000          0.0000          0.0000

STAT_0:   220000              36

MOVE_1:   220000           77192           39270         50.8731

ENER_1:   220000     355133.0815     355133.0815          0.0000          0.0000          0.0000          0.0000          0.0000          0.0000          0.0000          0.0000

STAT_1:   220000             566

Steps/sec. : 9431.7120
MOVE_0:   230000           45883           23296         50.7726          2.8791           22903           16933         73.9335         15.0000               0               0          0.0000           80499           41343         51.3584

ENER_0:   230000       2352.3490      19587.1553          0.0000     -15941.2034      -1293.6029          0.0000          0.0000          0.0000          0.0000          0.0000

STAT_0:   230000              34

MOVE_1:   230000           80715           41375         51.2606

ENER_1:   230000     380784.4438     380784.4438          0.0000          0.0000          0.0000          0.0000          0.0000          0.0000          0.0000          0.0000

STAT_1:   230000             568

Steps/sec. : 10248.6723
MOVE_0:   240000           47809           24250         50.7227          2.3831           23905           17755         74.2732         15.0000               0               0          0.0000           84086           43379         51.5888

ENER_0:   240000      14670.8402      33119.7088          0.0000     -16832.9841      -1615.8846          0.0000          0.0000          0.0000          0.0000          0.0000

STAT_0:   240000              38

MOVE_1:   240000           84200           43415         51.5618

ENER_1:   240000     353953.5307     353953.5307          0.0000          0.0000          0.0000          0.0000          0.0000          0.0000          0.0000          0.0000

STAT_1:   240000             564

Steps/sec. : 9853.0235
MOVE_0:   250000           49804           25231         50.6606          1.7622           24895           18540         74.4728         15.0000               0               0          0.0000           87605           45322         51.7345

ENER_0:   250000       4713.8356      22158.8716          0.0000     -15829.1514      -1615.8846          0.0000          0.0000          0.0000          0.0000          0.0000

STAT_0:   250000              38

MOVE_1:   250000           87696           45358         51.7219

ENER_1:   250000     376539.6595     376539.6595          0.0000          0.0000          0.0000          0.0000          0.0000          0.0000          0.0000          0.0000

STAT_1:   250000             564

Steps/sec. : 8715.0059
MOVE_0:   260000           51810           26241         50.6485          1.7422           25908           19289         74.4519         15.0000               0               0          0.0000           91090           47152         51.7642

ENER_0:   260000       5090.9064       8474.5934          0.0000      -3060.2863       -323.4007          0.0000          0.0000          0.0000          0.0000          0.0000

STAT_0:   260000              17

MOVE_1:   260000           91192           47167         51.7227

ENER_1:   260000     362052.5187     362052.5187          0.0000          0.0000          0.0000          0.0000          0.0000          0.0000          0.0000          0.0000

STAT_1:   260000             585

Steps/sec. : 7293.6705
MOVE_0:   270000           53749           27248         50.6949          2.2200           26886           20056         74.5964         15.0000               0               0          0.0000           94585           49125         51.9374

ENER_0:   270000       8616.7933      15492.6342          0.0000      -6334.2286       -541.6123          0.0000          0.0000          0.0000          0.0000          0.0000

STAT_0:   270000              22

MOVE_1:   270000           94780           49145         51.8517

ENER_1:   270000     359720.0687     359720.0687          0.0000          0.0000          0.0000          0.0000          0.0000          0.0000          0.0000          0.0000

STAT_1:   270000             580

Steps/sec. : 8463.4520
MOVE_0:   280000           55793           28227         50.5924          1.1961           27885           20818         74.6566         15.0000               0               0          0.0000           98050           50976         51.9898

ENER_0:   280000       4449.1635      34740.2591          0.0000     -27923.2204      -2367.8752          0.0000          0.0000          0.0000          0.0000          0.0000

STAT_0:   280000              46

MOVE_1:   280000           98272           51020         51.9171

ENER_1:   280000     358463.2469     358463.2469          0.0000          0.0000          0.0000          0.0000          0.0000          0.0000          0.0000          0.0000

STAT_1:   280000             556

Steps/sec. : 7798.9671
MOVE_0:   290000           57789           29291         50.6861          1.8403           28952           21685         74.8998         15.0000               0               0          0.0000          101502           53005         52.2206

ENER_0:   290000      10898.3393      27906.6902          0.0000     -15476.3938      -1531.9570          0.0000          0.0000          0.0000          0.0000          0.0000

STAT_0:   290000              37

MOVE_1:   290000          101757           53040         52.1242

ENER_1:   290000     373934.7346     373934.7346          0.0000          0.0000          0.0000          0.0000          0.0000          0.0000          0.0000          0.0000

STAT_1:   290000             565

Steps/sec. : 9623.8150
MOVE_0:   300000           59788           30236         50.5720          0.9988           29939           22361         74.6885         15.0000               0               0          0.0000          104979           54574         51.9856

ENER_0:   300000     -21934.8136      52065.0341          0.0000     -67191.6471      -6808.2006          0.0000          0.0000          0.0000          0.0000          0.0000

STAT_0:   300000              78

MOVE_1:   300000          105294           54650         51.9023

ENER_1:   300000     321637.3799     321637.3799          0.0000          0.0000          0.0000          0.0000          0.0000          0.0000          0.0000          0.0000

STAT_1:   300000             524

Steps/sec. : 6007.6260
MOVE_0:   310000           61910           31415         50.7430          2.5473           30965           23067         74.4938         15.0000               0               0          0.0000          108412           56280         51.9131

ENER_0:   310000       7223.8047      10204.3121          0.0000      -2657.1067       -323.4007          0.0000          0.0000          0.0000          0.0000          0.0000

STAT_0:   310000              17

MOVE_1:   310000          108713           56295         51.7831

ENER_1:   310000     368957.3083     368957.3083          0.0000          0.0000          0.0000          0.0000          0.0000          0.0000          0.0000          0.0000

STAT_1:   310000             585

Steps/sec. : 6312.9636
MOVE_0:   320000           63884           32350         50.6387          1.3651           31951           23804         74.5016         15.0000               0               0          0.0000          111910           58107         51.9230

ENER_0:   320000     -21893.8785      47465.4179          0.0000     -63064.7322      -6294.5642          0.0000          0.0000          0.0000          0.0000          0.0000

STAT_0:   320000              75

MOVE_1:   320000          112255           58180         51.8284

ENER_1:   320000     334795.6525     334795.6525          0.0000          0.0000          0.0000          0.0000          0.0000          0.0000          0.0000          0.0000

STAT_1:   320000             527

Steps/sec. : 7696.0497
MOVE_0:   330000           65951           33471         50.7513          2.7730           32972           24546         74.4450         15.0000               0               0          0.0000          115346           59954         51.9775

ENER_0:   330000       7626.9504      17464.3781          0.0000      -8960.1053       -877.3224          0.0000          0.0000          0.0000          0.0000          0.0000

STAT_0:   330000              28

MOVE_1:   330000          115731           59980         51.8271

ENER_1:   330000     357962.3859     357962.3859          0.0000          0.0000          0.0000          0.0000          0.0000          0.0000          0.0000          0.0000

STAT_1:   330000             574

Steps/sec. : 7526.2205
MOVE_0:   340000           67976           34489         50.7370          2.5678           33986           25316         74.4895         15.0000               0               0          0.0000          118762           61873         52.0983

ENER_0:   340000       5875.2024      22235.3583          0.0000     -14658.1057      -1702.0502          0.0000          0.0000          0.0000          0.0000          0.0000

STAT_0:   340000              39

MOVE_1:   340000          119276           61910         51.9048

ENER_1:   340000     338470.1063     338470.1063          0.0000          0.0000          0.0000          0.0000          0.0000          0.0000          0.0000          0.0000

STAT_1:   340000             563

Steps/sec. : 8189.5927
MOVE_0:   350000           69946           35420         50.6391          1.1726           35007           26058         74.4365         15.0000               0               0          0.0000          122257           63674         52.0821

ENER_0:   350000     -15840.6204      41629.8848          0.0000     -52595.9947      -4874.5105          0.0000          0.0000          0.0000          0.0000          0.0000

STAT_0:   350000              66

MOVE_1:   350000          122790           63738         51.9081

ENER_1:   350000     355904.9905     355904.9905          0.0000          0.0000          0.0000          0.0000          0.0000          0.0000          0.0000          0.0000

STAT_1:   350000             536

Steps/sec. : 7482.7787
MOVE_0:   360000           71903           36387         50.6057          1.0039           36046           26729         74.1525         15.0000               0               0          0.0000          125761           65213         51.8547

ENER_0:   360000     -19660.5470      48255.6770          0.0000     -61952.8937      -5963.3302          0.0000          0.0000          0.0000          0.0000          0.0000

STAT_0:   360000              73

MOVE_1:   360000          126290           65284         51.6937

ENER_1:   360000     322374.1350     322374.1350          0.0000          0.0000          0.0000          0.0000          0.0000          0.0000          0.0000          0.0000

STAT_1:   360000             529

Steps/sec. : 5685.5359
MOVE_0:   370000           73907           37482         50.7151          2.2736           37053           27421         74.0048         15.0000               0               0          0.0000          129305           66894         51.7335

ENER_0:   370000       7501.1530      12006.4326          0.0000      -3963.6673       -541.6123          0.0000          0.0000          0.0000          0.0000          0.0000

STAT_0:   370000              22

MOVE_1:   370000          129735           66914         51.5774

ENER_1:   370000     391598.0651     391598.0651          0.0000          0.0000          0.0000          0.0000          0.0000          0.0000          0.0000          0.0000

STAT_1:   370000             580

Steps/sec. : 6800.0288
MOVE_0:   380000           75941           38421         50.5932          0.9441           38099           28149         73.8838         15.0000               0               0          0.0000          132731           68607         51.6888

ENER_0:   380000        322.3074      42313.1630          0.0000     -37689.2903      -4301.5653          0.0000          0.0000          0.0000          0.0000          0.0000

STAT_0:   380000              62

MOVE_1:   380000          133229           68667         51.5406

ENER_1:   380000     343841.9692     343841.9692          0.0000          0.0000          0.0000          0.0000          0.0000          0.0000          0.0000          0.0000

STAT_1:   380000             540

Steps/sec. : 6776.5145
MOVE_0:   390000           77957           39488         50.6536          1.4931           39109           28877         73.8372         15.0000               0               0          0.0000          136202           70356         51.6556

ENER_0:   390000       3883.7810      20790.7320          0.0000     -15613.3481      -1293.6029          0.0000          0.0000          0.0000          0.0000          0.0000

STAT_0:   390000              34

MOVE_1:   390000          136732           70388         51.4788

ENER_1:   390000     355850.6542     355850.6542          0.0000          0.0000          0.0000          0.0000          0.0000          0.0000          0.0000          0.0000

STAT_1:   390000             568

Steps/sec. : 6572.4918
MOVE_0:   400000           79859           40389         50.5754          0.6914           40095           29558         73.7199         15.0000               0               0          0.0000          139713           71937         51.4891

ENER_0:   400000     -56632.5640      56079.7471          0.0000    -101521.9748     -11190.3363          0.0000          0.0000          0.0000          0.0000          0.0000

STAT_0:   400000             100

MOVE_1:   400000          140333           72035         51.3315

ENER_1:   400000     314404.4852     314404.4852          0.0000          0.0000          0.0000          0.0000          0.0000          0.0000          0.0000          0.0000

STAT_1:   400000             502

Steps/sec. : 5779.6179
MOVE_0:   410000           81867           41442         50.6211          1.0214           41109           30194         73.4486         15.0000               0               0          0.0000          143141           73373         51.2592

ENER_0:   410000     -33371.5454      65054.4024          0.0000     -89159.2303      -9266.7175          0.0000          0.0000          0.0000          0.0000          0.0000

STAT_0:   410000              91

MOVE_1:   410000          143883           73462         51.0568

ENER_1:   410000     334865.4969     334865.4969          0.0000          0.0000          0.0000          0.0000          0.0000          0.0000          0.0000          0.0000

STAT_1:   410000             511

Steps/sec. : 4991.8712
MOVE_0:   420000           83813           42388         50.5745          0.6691           42165           30805         73.0582         15.0000               0               0          0.0000          146674           74653         50.8972

ENER_0:   420000     -52979.2291      72848.5960          0.0000    -113490.4793     -12337.3458          0.0000          0.0000          0.0000          0.0000          0.0000

STAT_0:   420000             105

MOVE_1:   420000          147348           74756         50.7343

ENER_1:   420000     320713.1154     320713.1154          0.0000          0.0000          0.0000          0.0000          0.0000          0.0000          0.0000          0.0000

STAT_1:   420000             497

Steps/sec. : 4482.7669
MOVE_0:   430000           85848           43599         50.7863          3.5660           43158           31479         72.9390         15.0000               0               0          0.0000          150242           76350         50.8180

ENER_0:   430000      11150.6664      17803.9527          0.0000      -6061.3175       -591.9688          0.0000          0.0000          0.0000          0.0000          0.0000

STAT_0:   430000              23

MOVE_1:   430000          150752           76371         50.6600

ENER_1:   430000     346456.3854     346456.3854          0.0000          0.0000          0.0000          0.0000          0.0000          0.0000          0.0000          0.0000

STAT_1:   430000             579

Steps/sec. : 6023.5995
MOVE_0:   440000           87842           44553         50.7195          1.9476           44192           32274         73.0313         15.0000               0               0          0.0000          153805           78269         50.8885

ENER_0:   440000       9551.9821      23095.7830          0.0000     -12397.9105      -1145.8904          0.0000          0.0000          0.0000          0.0000          0.0000

STAT_0:   440000              32

MOVE_1:   440000          154161           78299         50.7904

ENER_1:   440000     369462.1413     369462.1413          0.0000          0.0000          0.0000          0.0000          0.0000          0.0000          0.0000          0.0000

STAT_1:   440000             570

Steps/sec. : 8783.3088
MOVE_0:   450000           89871           45600         50.7394          2.3189           45206           33092         73.2027         15.0000               0               0          0.0000          157273           80219         51.0062

ENER_0:   450000       2353.3357      13655.0405          0.0000     -10485.9293       -815.7755          0.0000          0.0000          0.0000          0.0000          0.0000

STAT_0:   450000              27

MOVE_1:   450000          157650           80244         50.9001

ENER_1:   450000     363192.9314     363192.9314          0.0000          0.0000          0.0000          0.0000          0.0000          0.0000          0.0000          0.0000

STAT_1:   450000             575

Steps/sec. : 9720.9046
MOVE_0:   460000           91854           46597         50.7294          2.3626           46219           33886         73.3162         15.0000               0               0          0.0000          160728           82237         51.1653

ENER_0:   460000       5125.8277      24472.5577          0.0000     -17814.7729      -1531.9570          0.0000          0.0000          0.0000          0.0000          0.0000

STAT_0:   460000              37

MOVE_1:   460000          161199           82272         51.0375

ENER_1:   460000     339576.4487     339576.4487          0.0000          0.0000          0.0000          0.0000          0.0000          0.0000          0.0000          0.0000

STAT_1:   460000             565

Steps/sec. : 9697.8912
MOVE_0:   470000           93809           47583         50.7233          2.0985           47250           34684         73.4053         15.0000               0               0          0.0000          164302           84248         51.2763

ENER_0:   470000       7843.2026      11153.7131          0.0000      -3024.0378       -286.4726          0.0000          0.0000          0.0000          0.0000          0.0000

STAT_0:   470000              16

MOVE_1:   470000          164639           84262         51.1799

ENER_1:   470000     396799.5361     396799.5361          0.0000          0.0000          0.0000          0.0000          0.0000          0.0000          0.0000          0.0000

STAT_1:   470000             586

Steps/sec. : 9430.0728
MOVE_0:   480000           95736           48543         50.7051          1.8866           48217           35478         73.5799         15.0000               0               0          0.0000          167881           86249         51.3751

ENER_0:   480000       1624.9257      18436.5340          0.0000     -15665.7178      -1145.8904          0.0000          0.0000          0.0000          0.0000          0.0000

STAT_0:   480000              32

MOVE_1:   480000          168166           86279         51.3059

ENER_1:   480000     368433.2006     368433.2006          0.0000          0.0000          0.0000          0.0000          0.0000          0.0000          0.0000          0.0000

STAT_1:   480000             570

Steps/sec. : 9872.5651
MOVE_0:   490000           97742           49557         50.7018          1.9690           49227           36232         73.6019         15.0000               0               0          0.0000          171393           88148         51.4303

ENER_0:   490000       6247.9746      13720.5901          0.0000      -6828.0521       -644.5634          0.0000          0.0000          0.0000          0.0000          0.0000

STAT_0:   490000              24

MOVE_1:   490000          171638           88170         51.3697

ENER_1:   490000     389313.8521     389313.8521          0.0000          0.0000          0.0000          0.0000          0.0000          0.0000          0.0000          0.0000

STAT_1:   490000             578

Steps/sec. : 8557.0955
MOVE_0:   500000           99728           50562         50.6999          1.8853           50236           37054         73.7599         15.0000               0               0          0.0000          174928           90090         51.5012

ENER_0:   500000       2101.2505      14151.5681          0.0000     -11234.5420       -815.7755          0.0000          0.0000          0.0000          0.0000          0.0000

STAT_0:   500000              27

MOVE_1:   500000          175108           90115         51.4625

ENER_1:   500000     354968.5337     354968.5337          0.0000          0.0000          0.0000          0.0000          0.0000          0.0000          0.0000          0.0000

STAT_1:   500000             575

Steps/sec. : 8762.0519
MOVE_0:   510000          101639           51570         50.7384          2.6192           51224           37865         73.9204         15.0000               0               0          0.0000          178546           92161         51.6175

ENER_0:   510000       8701.4913      26947.6813          0.0000     -16544.1399      -1702.0502          0.0000          0.0000          0.0000          0.0000          0.0000

STAT_0:   510000              39

MOVE_1:   510000          178591           92198         51.6252

ENER_1:   510000     353740.2536     353740.2536          0.0000          0.0000          0.0000          0.0000          0.0000          0.0000          0.0000          0.0000

STAT_1:   510000             563

Steps/sec. : 2383.3620
MOVE_0:   520000          103690           52508         50.6394          1.0255           52178           38596         73.9699         15.0000               0               0          0.0000          182027           93980         51.6297

ENER_0:   520000     -23442.1053      48045.6986          0.0000     -64503.9150      -6983.8889          0.0000          0.0000          0.0000          0.0000          0.0000

STAT_0:   520000              79

MOVE_1:   520000          182105           94057         51.6499

ENER_1:   520000     354294.6362     354294.6362          0.0000          0.0000          0.0000          0.0000          0.0000          0.0000          0.0000          0.0000

STAT_1:   520000             523

Steps/sec. : 2182.4435
MOVE_0:   530000          105760           53653         50.7309          2.6683           53140           39339         74.0290         15.0000               0               0          0.0000          185539           95899         51.6867

ENER_0:   530000       4688.6279      20081.1785          0.0000     -14317.1593      -1075.3913          0.0000          0.0000          0.0000          0.0000          0.0000

STAT_0:   530000              31

MOVE_1:   530000          185561           95928         51.6962

ENER_1:   530000     358699.3838     358699.3838          0.0000          0.0000          0.0000          0.0000          0.0000          0.0000          0.0000          0.0000

STAT_1:   530000             571

Steps/sec. : 2222.0148
MOVE_0:   540000          107738           54698         50.7695          3.0528           54154           40129         74.1016         15.0000               0               0          0.0000          189128           97822         51.7226

ENER_0:   540000       4168.1347       5991.3703          0.0000      -1687.8326       -135.4031          0.0000          0.0000          0.0000          0.0000          0.0000

STAT_0:   540000              11

MOVE_1:   540000          188980           97831         51.7679

ENER_1:   540000     382194.1041     382194.1041          0.0000          0.0000          0.0000          0.0000          0.0000          0.0000          0.0000          0.0000

STAT_1:   540000             591

Steps/sec. : 2255.3966
MOVE_0:   550000          109789           55703         50.7364          2.0561           55110           40872         74.1644         15.0000               0               0          0.0000          192698           99760         51.7701

ENER_0:   550000       9185.1383      16781.3398          0.0000      -6896.8055       -699.3960          0.0000          0.0000          0.0000          0.0000          0.0000

STAT_0:   550000              25

MOVE_1:   550000          192403           99783         51.8615

ENER_1:   550000     366126.2900     366126.2900          0.0000          0.0000          0.0000          0.0000          0.0000          0.0000          0.0000          0.0000

STAT_1:   550000             577

Steps/sec. : 2287.3533
MOVE_0:   560000          111802           56733         50.7442          2.2815           56110           41697         74.3130         15.0000               0               0          0.0000          196269          101836         51.8859

ENER_0:   560000       5016.2840      19564.8798          0.0000     -13402.7054      -1145.8904          0.0000          0.0000          0.0000          0.0000          0.0000

STAT_0:   560000              32

MOVE_1:   560000          195819          101866         52.0205

ENER_1:   560000     359253.8255     359253.8255          0.0000          0.0000          0.0000          0.0000          0.0000          0.0000          0.0000          0.0000

STAT_1:   560000             570

Steps/sec. : 2375.1508
MOVE_0:   570000          113793           57755         50.7544          2.7254           57121           42488         74.3825         15.0000               0               0          0.0000          199732          103810         51.9746

ENER_0:   570000       9237.5886      31827.5841          0.0000     -20222.1203      -2367.8752          0.0000          0.0000          0.0000          0.0000          0.0000

STAT_0:   570000              46

MOVE_1:   570000          199354          103854         52.0953

ENER_1:   570000     359438.0183     359438.0183          0.0000          0.0000          0.0000          0.0000          0.0000          0.0000          0.0000          0.0000

STAT_1:   570000             556

Steps/sec. : 2252.8261
MOVE_0:   580000          115823           58713         50.6920          1.4244           58171           43241         74.3343         15.0000               0               0          0.0000          203164          105565         51.9605

ENER_0:   580000      -9418.6392      31514.8016          0.0000     -36769.5166      -4163.9241          0.0000          0.0000          0.0000          0.0000          0.0000

STAT_0:   580000              61

MOVE_1:   580000          202842          105624         52.0721

ENER_1:   580000     344778.1132     344778.1132          0.0000          0.0000          0.0000          0.0000          0.0000          0.0000          0.0000          0.0000

STAT_1:   580000             541

Steps/sec. : 2279.9008
MOVE_0:   590000          117793           59696         50.6787          1.0906           59183           43983         74.3169         15.0000               0               0          0.0000          206630          107336         51.9460

ENER_0:   590000     -35729.2970      56181.9797          0.0000     -83047.4113      -8863.8654          0.0000          0.0000          0.0000          0.0000          0.0000

STAT_0:   590000              89

MOVE_1:   590000          206394          107423         52.0475

ENER_1:   590000     310661.5537     310661.5537          0.0000          0.0000          0.0000          0.0000          0.0000          0.0000          0.0000          0.0000

STAT_1:   590000             513

Steps/sec. : 2199.6688
MOVE_0:   600000          119852           60721         50.6633          0.8993           60237           44611         74.0591         15.0000               0               0          0.0000          210083          108682         51.7329

ENER_0:   600000     -19113.2657      47016.0037          0.0000     -60328.1991      -5801.0704          0.0000          0.0000          0.0000          0.0000          0.0000

STAT_0:   600000              72

MOVE_1:   600000          209828          108752         51.8291

ENER_1:   600000     344622.0974     344622.0974          0.0000          0.0000          0.0000          0.0000          0.0000          0.0000          0.0000          0.0000

STAT_1:   600000             530

Steps/sec. : 1861.9851
MOVE_0:   610000          121863           61796         50.7094          1.4120           61228           45380         74.1164         15.0000               0               0          0.0000          213607          110574         51.7652

ENER_0:   610000      -6320.9632      33503.5055          0.0000     -36188.7284      -3635.7403          0.0000          0.0000          0.0000          0.0000          0.0000

STAT_0:   610000              57

MOVE_1:   610000          213302          110629         51.8650

ENER_1:   610000     341235.6738     341235.6738          0.0000          0.0000          0.0000          0.0000          0.0000          0.0000          0.0000          0.0000

STAT_1:   610000             545

Steps/sec. : 2288.7872
MOVE_0:   620000          123917           62870         50.7356          1.9463           62182           46053         74.0616         15.0000               0               0          0.0000          217118          112385         51.7622

ENER_0:   620000       8453.5650      23699.9961          0.0000     -13796.1635      -1450.2676          0.0000          0.0000          0.0000          0.0000          0.0000

STAT_0:   620000              36

MOVE_1:   620000          216783          112419         51.8578

ENER_1:   620000     353058.6147     353058.6147          0.0000          0.0000          0.0000          0.0000          0.0000          0.0000          0.0000          0.0000

STAT_1:   620000             566

Steps/sec. : 2240.5745
MOVE_0:   630000          125986           63945         50.7556          2.3799           63196           46869         74.1645         15.0000               0               0          0.0000          220634          114374         51.8388

ENER_0:   630000       5654.4759      18662.7455          0.0000     -11714.6667      -1293.6029          0.0000          0.0000          0.0000          0.0000          0.0000

STAT_0:   630000              34

MOVE_1:   630000          220184          114406         51.9593

ENER_1:   630000     380109.9887     380109.9887          0.0000          0.0000          0.0000          0.0000          0.0000          0.0000          0.0000          0.0000

STAT_1:   630000             568

Steps/sec. : 2367.8610
MOVE_0:   640000          128018           65013         50.7843          2.9899           64198           47699         74.2998         15.0000               0               0          0.0000          224200          116427         51.9300

ENER_0:   640000       6325.8669      16632.6608          0.0000      -9491.0184       -815.7755          0.0000          0.0000          0.0000          0.0000          0.0000

STAT_0:   640000              27

MOVE_1:   640000          223584          116452         52.0842

ENER_1:   640000     355757.9820     355757.9820          0.0000          0.0000          0.0000          0.0000          0.0000          0.0000          0.0000          0.0000

STAT_1:   640000             575

Steps/sec. : 2091.1936
MOVE_0:   650000          129962           65995         50.7802          2.6311           65233           48514         74.3703         15.0000               0               0          0.0000          227720          118425         52.0047

ENER_0:   650000       3059.6150      27963.9232          0.0000     -22536.4330      -2367.8752          0.0000          0.0000          0.0000          0.0000          0.0000

STAT_0:   650000              46

MOVE_1:   650000          227085          118469         52.1695

ENER_1:   650000     350380.3348     350380.3348          0.0000          0.0000          0.0000          0.0000          0.0000          0.0000          0.0000          0.0000

STAT_1:   650000             556

Steps/sec. : 1741.1174
MOVE_0:   660000          132020           67043         50.7825          2.4303           66176           49221         74.3789         15.0000               0               0          0.0000          231235          120266         52.0103

ENER_0:   660000       6281.5311      10330.8625          0.0000      -3762.8588       -286.4726          0.0000          0.0000          0.0000          0.0000          0.0000

STAT_0:   660000              16

MOVE_1:   660000          230569          120280         52.1666

ENER_1:   660000     367232.0273     367232.0273          0.0000          0.0000          0.0000          0.0000          0.0000          0.0000          0.0000          0.0000

STAT_1:   660000             586

Steps/sec. : 1774.5839
MOVE_0:   670000          134059           68086         50.7881          2.2312           67153           49982         74.4300         15.0000               0               0          0.0000          234666          122171         52.0617

ENER_0:   670000       1163.7958      18658.2751          0.0000     -16123.6631      -1370.8162          0.0000          0.0000          0.0000          0.0000          0.0000

STAT_0:   670000              35

MOVE_1:   670000          234122          122204         52.1967

ENER_1:   670000     369335.8525     369335.8525          0.0000          0.0000          0.0000          0.0000          0.0000          0.0000          0.0000          0.0000

STAT_1:   670000             567

Steps/sec. : 1775.9339
MOVE_0:   680000          135996           69061         50.7816          2.0860           68175           50801         74.5156         15.0000               0               0          0.0000          238219          124164         52.1218

ENER_0:   680000       8753.8899      13805.1737          0.0000      -4557.7900       -493.4938          0.0000          0.0000          0.0000          0.0000          0.0000

STAT_0:   680000              21

MOVE_1:   680000          237610          124183         52.2634

ENER_1:   680000     382019.5779     382019.5779          0.0000          0.0000          0.0000          0.0000          0.0000          0.0000          0.0000          0.0000

STAT_1:   680000             581

Steps/sec. : 1822.4185
MOVE_0:   690000          138026           70077         50.7709          1.7467           69173           51540         74.5088         15.0000               0               0          0.0000          241662          125924         52.1075

ENER_0:   690000      -5126.2348      36650.8197          0.0000     -37613.1304      -4163.9241          0.0000          0.0000          0.0000          0.0000          0.0000

STAT_0:   690000              61

MOVE_1:   690000          241139          125983         52.2450

ENER_1:   690000     350472.1888     350472.1888          0.0000          0.0000          0.0000          0.0000          0.0000          0.0000          0.0000          0.0000

STAT_1:   690000             541

Steps/sec. : 1640.6210
MOVE_0:   700000          140038           71025         50.7184          0.9141           70140           52103         74.2843         14.8911               0               0          0.0000          245133          127164         51.8755

ENER_0:   700000     -45537.6129      61564.9184          0.0000     -97003.2528     -10099.2785          0.0000          0.0000          0.0000          0.0000          0.0000

STAT_0:   700000              95

MOVE_1:   700000          244689          127257         52.0077

ENER_1:   700000     319796.0497     319796.0497          0.0000          0.0000          0.0000          0.0000          0.0000          0.0000          0.0000          0.0000

STAT_1:   700000             507

Steps/sec. : 1415.1461
MOVE_0:   710000          142013           72005         50.7031          0.8241           71158           52654         73.9959         14.5545               0               0          0.0000          248549          128365         51.6458

ENER_0:   710000     -49546.1343      64021.7024          0.0000    -102600.1881     -10967.6486          0.0000          0.0000          0.0000          0.0000          0.0000

STAT_0:   710000              99

MOVE_1:   710000          248280          128462         51.7408

ENER_1:   710000     333635.4660     333635.4660          0.0000          0.0000          0.0000          0.0000          0.0000          0.0000          0.0000          0.0000

STAT_1:   710000             503

Steps/sec. : 1466.5531
MOVE_0:   720000          144004           73021         50.7076          0.9901           72191           53261         73.7779         15.0000               0               0          0.0000          252088          129778         51.4812

ENER_0:   720000     -13374.6173      55651.1107          0.0000     -62731.1638      -6294.5642          0.0000          0.0000          0.0000          0.0000          0.0000

STAT_0:   720000              75

MOVE_1:   720000          251717          129851         51.5861

ENER_1:   720000     364463.2214     364463.2214          0.0000          0.0000          0.0000          0.0000          0.0000          0.0000          0.0000          0.0000

STAT_1:   720000             527

Steps/sec. : 1584.0076
MOVE_0:   730000          146011           74122         50.7647          2.2752           73231           54054         73.8130         15.0000               0               0          0.0000          255590          131652         51.5091

ENER_0:   730000       3588.5389      23527.7935          0.0000     -17965.2793      -1973.9753          0.0000          0.0000          0.0000          0.0000          0.0000

STAT_0:   730000              42

MOVE_1:   730000          255168          131692         51.6099

ENER_1:   730000     366410.8640     366410.8640          0.0000          0.0000          0.0000          0.0000          0.0000          0.0000          0.0000          0.0000

STAT_1:   730000             560

Steps/sec. : 1753.8487
MOVE_0:   740000          147905           75082         50.7637          2.3920           74281           54875         73.8749         15.0000               0               0          0.0000          259117          133549         51.5400

ENER_0:   740000       7491.9129      18808.7743          0.0000     -10309.7310      -1007.1303          0.0000          0.0000          0.0000          0.0000          0.0000

STAT_0:   740000              30

MOVE_1:   740000          258697          133577         51.6345

ENER_1:   740000     378391.5344     378391.5344          0.0000          0.0000          0.0000          0.0000          0.0000          0.0000          0.0000          0.0000

STAT_1:   740000             572

Steps/sec. : 1812.8918
MOVE_0:   750000          149945           76036         50.7093          0.9290           75275           55574         73.8280         14.5545               0               0          0.0000          262635          135285         51.5107

ENER_0:   750000     -44692.5498      59870.6573          0.0000     -94884.6853      -9678.5219          0.0000          0.0000          0.0000          0.0000          0.0000

STAT_0:   750000              93

MOVE_1:   750000          262145          135376         51.6416

ENER_1:   750000     321467.9589     321467.9589          0.0000          0.0000          0.0000          0.0000          0.0000          0.0000          0.0000          0.0000

STAT_1:   750000             509

Steps/sec. : 1580.0769
MOVE_0:   760000          151938           77016         50.6891          0.7592           76328           56141         73.5523         14.9851               0               0          0.0000          266063          136457         51.2875

ENER_0:   760000     -76001.9221      65635.0020          0.0000    -128584.5158     -13052.4083          0.0000          0.0000          0.0000          0.0000          0.0000

STAT_0:   760000             108

MOVE_1:   760000          265671          136563         51.4031

ENER_1:   760000     308704.4813     308704.4813          0.0000          0.0000          0.0000          0.0000          0.0000          0.0000          0.0000          0.0000

STAT_1:   760000             494

Steps/sec. : 1516.9533
MOVE_0:   770000          153943           78080         50.7201          1.2635           77322           56750         73.3944         15.0000               0               0          0.0000          269553          137827         51.1317

ENER_0:   770000      -3046.6917      27697.7315          0.0000     -28166.1697      -2578.2535          0.0000          0.0000          0.0000          0.0000          0.0000

STAT_0:   770000              48

MOVE_1:   770000          269182          137873         51.2192

ENER_1:   770000     354599.8519     354599.8519          0.0000          0.0000          0.0000          0.0000          0.0000          0.0000          0.0000          0.0000

STAT_1:   770000             554

Steps/sec. : 1513.5508
MOVE_0:   780000          155962           79050         50.6854          0.7799           78338           57399         73.2710         15.0000               0               0          0.0000          272988          139168         50.9795

ENER_0:   780000     -57778.3050      62612.8883          0.0000    -108975.9312     -11415.2621          0.0000          0.0000          0.0000          0.0000          0.0000

STAT_0:   780000             101

MOVE_1:   780000          272712          139267         51.0674

ENER_1:   780000     327922.0091     327922.0091          0.0000          0.0000          0.0000          0.0000          0.0000          0.0000          0.0000          0.0000

STAT_1:   780000             501

Steps/sec. : 1556.6143
MOVE_0:   790000          157976           80162         50.7432          1.9863           79391           58130         73.2199         15.0000               0               0          0.0000          276463          140824         50.9377

ENER_0:   790000      11157.3711      24683.7130          0.0000     -12307.7143      -1218.6276          0.0000          0.0000          0.0000          0.0000          0.0000

STAT_0:   790000              33

MOVE_1:   790000          276170          140855         51.0030

ENER_1:   790000     362062.6907     362062.6907          0.0000          0.0000          0.0000          0.0000          0.0000          0.0000          0.0000          0.0000

STAT_1:   790000             569

Steps/sec. : 1607.5557
MOVE_0:   800000          160002           81100         50.6869          0.8570           80382           58771         73.1146         15.0000               0               0          0.0000          279899          142271         50.8294

ENER_0:   800000     -65844.7416      63359.0083          0.0000    -116866.4041     -12337.3458          0.0000          0.0000          0.0000          0.0000          0.0000

STAT_0:   800000             105

MOVE_1:   800000          279717          142374         50.8993

ENER_1:   800000     291743.7356     291743.7356          0.0000          0.0000          0.0000          0.0000          0.0000          0.0000          0.0000          0.0000

STAT_1:   800000             497

Steps/sec. : 1514.7485
MOVE_0:   810000          162053           82126         50.6785          0.8301           81345           59324         72.9289         15.0000               0               0          0.0000          283375          143378         50.5966

ENER_0:   810000     -73611.6871      67541.5600          0.0000    -127612.9401     -13540.3070          0.0000          0.0000          0.0000          0.0000          0.0000

STAT_0:   810000             110

MOVE_1:   810000          283227          143486         50.6611

ENER_1:   810000     313269.8827     313269.8827          0.0000          0.0000          0.0000          0.0000          0.0000          0.0000          0.0000          0.0000

STAT_1:   810000             492

Steps/sec. : 1457.7357
MOVE_0:   820000          164065           83240         50.7360          2.2663           82358           60006         72.8600         15.0000               0               0          0.0000          286839          145019         50.5576

ENER_0:   820000      -2723.2199      25539.4128          0.0000     -25894.7575      -2367.8752          0.0000          0.0000          0.0000          0.0000          0.0000

STAT_0:   820000              46

MOVE_1:   820000          286738          145063         50.5908

ENER_1:   820000     359486.7569     359486.7569          0.0000          0.0000          0.0000          0.0000          0.0000          0.0000          0.0000          0.0000

STAT_1:   820000             556

Steps/sec. : 1515.1511
MOVE_0:   830000          166071           84282         50.7506          2.7390           83358           60795         72.9324         15.0000               0               0          0.0000          290361          147022         50.6342

ENER_0:   830000       7224.6497      20095.4250          0.0000     -11863.6450      -1007.1303          0.0000          0.0000          0.0000          0.0000          0.0000

STAT_0:   830000              30

MOVE_1:   830000          290210          147050         50.6702

ENER_1:   830000     388702.4580     388702.4580          0.0000          0.0000          0.0000          0.0000          0.0000          0.0000          0.0000          0.0000

STAT_1:   830000             572

Steps/sec. : 1787.5465
MOVE_0:   840000          167983           85250         50.7492          2.7678           84397           61626         73.0192         15.0000               0               0          0.0000          293891          148978         50.6916

ENER_0:   840000       4860.1673      28816.5626          0.0000     -21690.3521      -2266.0431          0.0000          0.0000          0.0000          0.0000          0.0000

STAT_0:   840000              45

MOVE_1:   840000          293729          149021         50.7342

ENER_1:   840000     370044.8204     370044.8204          0.0000          0.0000          0.0000          0.0000          0.0000          0.0000          0.0000          0.0000

STAT_1:   840000             557

Steps/sec. : 1804.9864
MOVE_0:   850000          169974           86253         50.7448          2.6601           85407           62480         73.1556         15.0000               0               0          0.0000          297469          151012         50.7656

ENER_0:   850000       8070.5797      17189.7942          0.0000      -8303.4390       -815.7755          0.0000          0.0000          0.0000          0.0000          0.0000

STAT_0:   850000              27

MOVE_1:   850000          297150          151037         50.8285

ENER_1:   850000     357623.5679     357623.5679          0.0000          0.0000          0.0000          0.0000          0.0000          0.0000          0.0000          0.0000

STAT_1:   850000             575

Steps/sec. : 1792.7190
MOVE_0:   860000          171941           87235         50.7354          2.1997           86415           63241         73.1829         15.0000               0               0          0.0000          300990          152763         50.7535

ENER_0:   860000       6395.3674      18502.9743          0.0000     -11100.4766      -1007.1303          0.0000          0.0000          0.0000          0.0000          0.0000

STAT_0:   860000              30

MOVE_1:   860000          300654          152791         50.8195

ENER_1:   860000     385050.1572     385050.1572          0.0000          0.0000          0.0000          0.0000          0.0000          0.0000          0.0000          0.0000

STAT_1:   860000             572

Steps/sec. : 1673.1249
MOVE_0:   870000          173820           88179         50.7301          1.5453           87434           64063         73.2701         15.0000               0               0          0.0000          304566          154748         50.8093

ENER_0:   870000       5484.3773      18970.8490          0.0000     -12545.3645       -941.1073          0.0000          0.0000          0.0000          0.0000          0.0000

STAT_0:   870000              29

MOVE_1:   870000          304180          154775         50.8827

ENER_1:   870000     382577.2484     382577.2484          0.0000          0.0000          0.0000          0.0000          0.0000          0.0000          0.0000          0.0000

STAT_1:   870000             573

Steps/sec. : 1797.6795
MOVE_0:   880000          175829           89239         50.7533          2.3552           88441           64864         73.3415         15.0000               0               0          0.0000          308050          156676         50.8606

ENER_0:   880000       8802.2708      24258.0234          0.0000     -14005.4851      -1450.2676          0.0000          0.0000          0.0000          0.0000          0.0000

STAT_0:   880000              36

MOVE_1:   880000          307680          156710         50.9328

ENER_1:   880000     360119.5300     360119.5300          0.0000          0.0000          0.0000          0.0000          0.0000          0.0000          0.0000          0.0000

STAT_1:   880000             566

Steps/sec. : 1723.3883
MOVE_0:   890000          177828           90192         50.7187          1.3011           89422           65590         73.3488         15.0000               0               0          0.0000          311530          158497         50.8770

ENER_0:   890000     -10245.4057      39348.3330          0.0000     -45429.8146      -4163.9241          0.0000          0.0000          0.0000          0.0000          0.0000

STAT_0:   890000              61

MOVE_1:   890000          311220          158556         50.9466

ENER_1:   890000     380157.2212     380157.2212          0.0000          0.0000          0.0000          0.0000          0.0000          0.0000          0.0000          0.0000

STAT_1:   890000             541

Steps/sec. : 1660.1155
MOVE_0:   900000          179843           91248         50.7376          1.9153           90380           66296         73.3525         15.0000               0               0          0.0000          315006          160297         50.8870

ENER_0:   900000       6851.9651      13444.5615          0.0000      -5948.0331       -644.5634          0.0000          0.0000          0.0000          0.0000          0.0000

STAT_0:   900000              24

MOVE_1:   900000          314771          160319         50.9319

ENER_1:   900000     376222.5154     376222.5154          0.0000          0.0000          0.0000          0.0000          0.0000          0.0000          0.0000          0.0000

STAT_1:   900000             578

Steps/sec. : 1669.1194
MOVE_0:   910000          181800           92266         50.7514          2.2499           91371           67117         73.4555         15.0000               0               0          0.0000          318547          162333         50.9605

ENER_0:   910000       6465.9060      17275.4480          0.0000      -9932.2197       -877.3224          0.0000          0.0000          0.0000          0.0000          0.0000

STAT_0:   910000              28

MOVE_1:   910000          318282          162359         51.0111

ENER_1:   910000     358980.0012     358980.0012          0.0000          0.0000          0.0000          0.0000          0.0000          0.0000          0.0000          0.0000

STAT_1:   910000             574

Steps/sec. : 1732.8106
MOVE_0:   920000          183730           93229         50.7424          1.8364           92390           67932         73.5274         15.0000               0               0          0.0000          322116          164331         51.0161

ENER_0:   920000        -49.2936      17311.2511          0.0000     -16066.9419      -1293.6029          0.0000          0.0000          0.0000          0.0000          0.0000

STAT_0:   920000              34

MOVE_1:   920000          321764          164363         51.0818

ENER_1:   920000     352968.8215     352968.8215          0.0000          0.0000          0.0000          0.0000          0.0000          0.0000          0.0000          0.0000

STAT_1:   920000             568

Steps/sec. : 1710.1644
MOVE_0:   930000          185704           94267         50.7620          2.5208           93471           68773         73.5768         15.0000               0               0          0.0000          325607          166268         51.0640

ENER_0:   930000       5119.2631      35878.0194          0.0000     -27961.1723      -2797.5841          0.0000          0.0000          0.0000          0.0000          0.0000

STAT_0:   930000              50

MOVE_1:   930000          325218          166316         51.1399

ENER_1:   930000     356779.1697     356779.1697          0.0000          0.0000          0.0000          0.0000          0.0000          0.0000          0.0000          0.0000

STAT_1:   930000             552

Steps/sec. : 1824.8245
MOVE_0:   940000          187714           95178         50.7037          0.8665           94417           69391         73.4942         13.8209               0               0          0.0000          329123          167750         50.9688

ENER_0:   940000     -59818.5955      65944.4232          0.0000    -112951.2026     -12811.8161          0.0000          0.0000          0.0000          0.0000          0.0000

STAT_0:   940000             107

MOVE_1:   940000          328746          167855         51.0592

ENER_1:   940000     312753.6059     312753.6059          0.0000          0.0000          0.0000          0.0000          0.0000          0.0000          0.0000          0.0000

STAT_1:   940000             495

Steps/sec. : 1562.3560
MOVE_0:   950000          189764           96206         50.6977          0.8598           95441           69963         73.3050         14.3870               0               0          0.0000          332573          168841         50.7681

ENER_0:   950000     -61024.1626      68908.4860          0.0000    -117595.3028     -12337.3458          0.0000          0.0000          0.0000          0.0000          0.0000

STAT_0:   950000             105

MOVE_1:   950000          332222          168944         50.8527

ENER_1:   950000     316072.7702     316072.7702          0.0000          0.0000          0.0000          0.0000          0.0000          0.0000          0.0000          0.0000

STAT_1:   950000             497

Steps/sec. : 1400.2004
MOVE_0:   960000          191773           97264         50.7183          1.3588           96451           70609         73.2071         15.0000               0               0          0.0000          336074          170381         50.6975

ENER_0:   960000       2551.9543      35463.7455          0.0000     -29768.4257      -3143.3655          0.0000          0.0000          0.0000          0.0000          0.0000

STAT_0:   960000              53

MOVE_1:   960000          335702          170432         50.7688

ENER_1:   960000     377213.9375     377213.9375          0.0000          0.0000          0.0000          0.0000          0.0000          0.0000          0.0000          0.0000

STAT_1:   960000             549

Steps/sec. : 1525.7387
MOVE_0:   970000          193725           98295         50.7395          1.9081           97430           71399         73.2824         15.0000               0               0          0.0000          339648          172404         50.7596

ENER_0:   970000       8366.4524      18094.1634          0.0000      -9028.3150       -699.3960          0.0000          0.0000          0.0000          0.0000          0.0000

STAT_0:   970000              25

MOVE_1:   970000          339197          172427         50.8339

ENER_1:   970000     389693.3948     389693.3948          0.0000          0.0000          0.0000          0.0000          0.0000          0.0000          0.0000          0.0000

STAT_1:   970000             577

Steps/sec. : 1658.1518
MOVE_0:   980000          195728           99276         50.7214          1.3506           98431           72130         73.2798         15.0000               0               0          0.0000          343143          174176         50.7590

ENER_0:   980000       8133.8173      27531.0874          0.0000     -17781.3855      -1615.8846          0.0000          0.0000          0.0000          0.0000          0.0000

STAT_0:   980000              38

MOVE_1:   980000          342698          174212         50.8354

ENER_1:   980000     355140.7518     355140.7518          0.0000          0.0000          0.0000          0.0000          0.0000          0.0000          0.0000          0.0000

STAT_1:   980000             564

Steps/sec. : 1673.9259
MOVE_0:   990000          197694          100298         50.7340          1.9376           99463           72925         73.3187         15.0000               0               0          0.0000          346689          176086         50.7908

ENER_0:   990000       2149.2764      33361.7435          0.0000     -28740.5218      -2471.9453          0.0000          0.0000          0.0000          0.0000          0.0000

STAT_0:   990000              47

MOVE_1:   990000          346154          176131         50.8823

ENER_1:   990000     347916.5870     347916.5870          0.0000          0.0000          0.0000          0.0000          0.0000          0.0000          0.0000          0.0000

STAT_1:   990000             555

Steps/sec. : 1715.4433
MOVE_0:  1000000          199718          101322         50.7325          1.8925          100482           73707         73.3534         15.0000               0               0          0.0000          350186          177914         50.8056

ENER_0:  1000000        558.9422      29197.9049          0.0000     -26060.7092      -2578.2535          0.0000          0.0000          0.0000          0.0000          0.0000

STAT_0:  1000000              48

MOVE_1:  1000000          349614          177960         50.9019

ENER_1:  1000000     380194.3685     380194.3685          0.0000          0.0000          0.0000          0.0000          0.0000          0.0000          0.0000          0.0000

STAT_1:  1000000             554

Simulation Time (total): 350.4635sec.
GOMC Serial Version 1.9
Completed at: Sat Apr 22 21:50:40 2017
On hostname: potoff39.eng.wayne.edu
