GOMC Serial Version 2.0
Started at: Sat Apr 22 20:43:15 2017
On hostname: potoff39.eng.wayne.edu

Total number of CPUs: 4
Total number of CPUs available: 4
Model name: Intel(R) Core(TM) i5-2500K CPU @ 3.30GHz

System name: Linux
Release: 2.6.32-642.4.2.el6.x86_64
Version: #1 SMP Tue Aug 23 19:58:13 UTC 2016
Kernel Architecture: x86_64
Total Ram: 7856.3MB
Used Ram: 5232.5MB
Working in the current directory /home3/soroush/Desktop/validation/GOMC_Examples/NPT_GEMC/binary_mixture/krypton_and_ethane_T_236_47_K/x_0.596

------------------------------------------------------
This code was compiled to support the Gibbs ensemble.
------------------------------------------------------

REMINDER: EXOTIC force field has been selected!
NPT_GEMC simulation has been selected 
Pressure of system has been set to 37.27000 bar 
Temperature of system has been set to 236.47000 K 
Note: Pressure will be calculated every 1000 steps.
By default intra box swap frequency has been set to zero
Warning: Electrostatic energy would not be calculated!
Reading from Exotic Parameter File file: ./../../../../common/Par_Mie_Alkane_Vrabec01_Noble_Gases_Exotic.inp
Finished reading Exotic Parameter File file: ./../../../../common/Par_Mie_Alkane_Vrabec01_Noble_Gases_Exotic.inp
Reading from Box 1 PDB coordinate file file: ./STEP3_START_KR_C2P_sys_BOX_0.pdb
Finished reading Box 1 PDB coordinate file file: ./STEP3_START_KR_C2P_sys_BOX_0.pdb
Reading from Box 2 PDB coordinate file file: ./STEP3_START_KR_C2P_sys_BOX_1.pdb
Finished reading Box 2 PDB coordinate file file: ./STEP3_START_KR_C2P_sys_BOX_1.pdb
Random number seed: 1075478603

Molecules in PSF:
Molecule Kind: C2P
Idx	name	type	charge	mass
0	C1	CH3	0.0000	15.0350
1	C2	CH3	0.0000	15.0350
Bonds:
[0 1] 
Angles:
Dihedrals:

Molecule Kind: KR
Idx	name	type	charge	mass
0	KR	KR	0.0000	83.7980
Bonds:
Angles:
Dihedrals:

REMINDER! 1-3 and 1-4 Interaction is OFF
Minimum coordinates in box 0: x =    1.001, y =    1.039, z =    1.064
Maximum coordinates in box 0: x =   56.998, y =   57.000, z =   56.983
Minimum coordinates in box 1: x =    1.001, y =    1.000, z =    1.000
Maximum coordinates in box 1: x =   67.000, y =   67.000, z =   67.000

###############################################################################
########################## INITIAL SIMULATION ENERGY ##########################

ETITLE:     STEP           TOTAL        INTRA(B)       INTRA(NB)       INTER(LJ)             LRC     TOTAL_ELECT            REAL           RECIP            SELF            CORR

ENER_0:        0   56208760.7726          0.0000          0.0000   56232487.3983     -23726.6257          0.0000          0.0000          0.0000          0.0000         -0.0000

ENER_1:        0    -145890.7874          0.0000          0.0000    -131035.4399     -14855.3475          0.0000          0.0000          0.0000          0.0000         -0.0000

###############################################################################
############################# STARTING SIMULATION #############################

MTITLE:     STEP          DISTRY       DISACCEPT      DISACCEPT%          DISMAX          ROTATE       ROTACCEPT      ROTACCEPT%          ROTMAX       INTRASWAP       INTACCEPT      INTACCEPT%        TRANSFER      TRANACCEPT     TRANACCEPT%          VOLUME       VOLACCEPT      VOLACCEPT%          VOLMAX

ETITLE:     STEP           TOTAL        INTRA(B)       INTRA(NB)       INTER(LJ)             LRC     TOTAL_ELECT            REAL           RECIP            SELF            CORR

STITLE:     STEP          VOLUME        TOTALMOL      MOLFRAC_KR     MOLFRAC_C2P     TOT_DENSITY

Printed combined psf to file krypton_ethane_NPT_236_47_K_merged.psf
MOVE_0:   100000           36972           18063         48.8559          0.7584            2546            1602         62.9222          3.1416               0               0          0.0000           10043            4916         48.9495             988             542         54.8583       2812.7794

ENER_0:   100000    -882907.3366          0.0000          0.0000    -833060.6198     -49846.7169          0.0000          0.0000          0.0000          0.0000          0.0000

STAT_0:   100000     200416.4411            1366          0.5146          0.4854        653.2775

MOVE_1:   100000           36992           18366         49.6486          4.6972            2506            2027         80.8859          3.1416               0               0          0.0000            9953            5282         53.0694             988             542         54.8583       2812.7794

ENER_1:   100000     -79831.8892          0.0000          0.0000     -75888.2643      -3943.6248          0.0000          0.0000          0.0000          0.0000          0.0000

STAT_1:   100000     414511.4884             634          0.7713          0.2287        181.6222

Steps/sec. : 6209.9381
MOVE_0:   200000           73744           36464         49.4467          0.6379            5102            3019         59.1729          3.1416               0               0          0.0000           20278            9145         45.0981            1998            1087         54.4044       3175.3429

ENER_0:   200000    -972063.4963          0.0000          0.0000    -918507.2727     -53556.2237          0.0000          0.0000          0.0000          0.0000          0.0000

STAT_0:   200000     197344.3445            1407          0.5174          0.4826        685.1233

MOVE_1:   200000           74057           36941         49.8818          4.7846            4972            4133         83.1255          3.1416               0               0          0.0000           19849            9552         48.1233            1998            1087         54.4044       3175.3429

ENER_1:   200000     -78944.4631          0.0000          0.0000     -75326.0883      -3618.3748          0.0000          0.0000          0.0000          0.0000          0.0000

STAT_1:   200000     390259.3492             593          0.7825          0.2175        181.9478

Steps/sec. : 4851.3378
MOVE_0:   300000          110623           54938         49.6624          0.6379            7714            4435         57.4929          2.3439               0               0          0.0000           30294           12812         42.2922            2975            1618         54.3866       2866.6514

ENER_0:   300000   -1123675.7277          0.0000          0.0000   -1058312.1688     -65363.5589          0.0000          0.0000          0.0000          0.0000          0.0000

STAT_0:   300000     180699.3930            1498          0.5314          0.4686        806.9526

MOVE_1:   300000          111049           55674         50.1346         13.4652            7503            6327         84.3263          3.1416               0               0          0.0000           29842           13310         44.6016            2975            1618         54.3866       2866.6514

ENER_1:   300000     -60720.5425          0.0000          0.0000     -57903.1285      -2817.4140          0.0000          0.0000          0.0000          0.0000          0.0000

STAT_1:   300000     356583.8701             502          0.7888          0.2112        169.3744

Steps/sec. : 4457.5899
MOVE_0:   400000          147514           73427         49.7763          0.6725           10169            5764         56.6821          1.9669               0               0          0.0000           40259           15998         39.7377            4006            2155         53.7943       3410.1099

ENER_0:   400000   -1185125.4337          0.0000          0.0000   -1115872.2472     -69253.1865          0.0000          0.0000          0.0000          0.0000          0.0000

STAT_0:   400000     177266.2975            1527          0.5311          0.4689        838.2990

MOVE_1:   400000          148199           74277         50.1198         12.7003            9983            8504         85.1848          3.1416               0               0          0.0000           39870           16525         41.4472            4006            2155         53.7943       3410.1099

ENER_1:   400000     -51182.8927          0.0000          0.0000     -48457.6460      -2725.2467          0.0000          0.0000          0.0000          0.0000          0.0000

STAT_1:   400000     321111.7785             473          0.8055          0.1945        179.4076

Steps/sec. : 3766.2741
MOVE_0:   500000          184425           91890         49.8251          0.5881           12573            7052         56.0884          2.3936               0               0          0.0000           50290           18947         37.6755            4990            2692         53.9479        550.1460

ENER_0:   500000   -1219973.9594          0.0000          0.0000   -1149029.3615     -70944.5979          0.0000          0.0000          0.0000          0.0000          0.0000

STAT_0:   500000     167347.5227            1491          0.5171          0.4829        855.9188

MOVE_1:   500000          185306           92783         50.0702          7.8177           12563           10749         85.5608          3.1416               0               0          0.0000           49853           19438         38.9906            4990            2692         53.9479        550.1460

ENER_1:   500000     -53439.3194          0.0000          0.0000     -50721.5013      -2717.8181          0.0000          0.0000          0.0000          0.0000          0.0000

STAT_1:   500000     363696.9024             509          0.8271          0.1729        173.1556

Steps/sec. : 3886.1933
MOVE_0:   600000          221438          110440         49.8740          0.6293           15129            8373         55.3440          2.4690               0               0          0.0000           60502           21728         35.9129            6004            3246         54.0640       3253.3183

ENER_0:   600000   -1190648.5815          0.0000          0.0000   -1120586.9846     -70061.5969          0.0000          0.0000          0.0000          0.0000          0.0000

STAT_0:   600000     161516.6752            1463          0.5270          0.4730        878.1618

MOVE_1:   600000          222066          111108         50.0338          4.4797           15121           12926         85.4838          3.1416               0               0          0.0000           59740           22191         37.1460            6004            3246         54.0640       3253.3183

ENER_1:   600000     -66595.1492          0.0000          0.0000     -63123.7066      -3471.4426          0.0000          0.0000          0.0000          0.0000          0.0000

STAT_1:   600000     333000.2519             537          0.7840          0.2160        193.3159

Steps/sec. : 4249.6042
MOVE_0:   700000          258324          128898         49.8978          0.5605           17611            9687         55.0054          2.2591               0               0          0.0000           70435           24335         34.5496            6989            3768         53.9133       1245.8183

ENER_0:   700000   -1241888.3970          0.0000          0.0000   -1169533.9927     -72354.4044          0.0000          0.0000          0.0000          0.0000          0.0000

STAT_0:   700000     160338.9455            1471          0.5133          0.4867        878.2006

MOVE_1:   700000          259011          129692         50.0720          7.0056           17671           15138         85.6658          3.1416               0               0          0.0000           69959           24806         35.4579            6989            3768         53.9133       1245.8183

ENER_1:   700000     -61810.1603          0.0000          0.0000     -58687.6695      -3122.4908          0.0000          0.0000          0.0000          0.0000          0.0000

STAT_1:   700000     342333.7533             529          0.8261          0.1739        191.0483

Steps/sec. : 4225.0157
MOVE_0:   800000          295190          147383         49.9282          0.5752           20065           10959         54.6175          2.1782               0               0          0.0000           80467           26880         33.4050            8002            4307         53.8240       2251.5100

ENER_0:   800000   -1240744.7953          0.0000          0.0000   -1168095.6400     -72649.1552          0.0000          0.0000          0.0000          0.0000          0.0000

STAT_0:   800000     157941.4876            1465          0.5160          0.4840        890.1992

MOVE_1:   800000          296246          148313         50.0641          5.8796           20150           17286         85.7866          3.1416               0               0          0.0000           79880           27345         34.2326            8002            4307         53.8240       2251.5100

ENER_1:   800000     -63901.7118          0.0000          0.0000     -60751.9380      -3149.7738          0.0000          0.0000          0.0000          0.0000          0.0000

STAT_1:   800000     351599.6723             535          0.8150          0.1850        186.6118

Steps/sec. : 4334.5214
MOVE_0:   900000          332207          165928         49.9472          0.5625           22563           12271         54.3855          3.1416               0               0          0.0000           90398           29339         32.4554            8945            4800         53.6613       2113.5939

ENER_0:   900000   -1233529.7288          0.0000          0.0000   -1160222.9735     -73306.7553          0.0000          0.0000          0.0000          0.0000          0.0000

STAT_0:   900000     149404.6283            1423          0.5046          0.4954        904.3358

MOVE_1:   900000          333445          166911         50.0565          4.7740           22728           19465         85.6433          3.1416               0               0          0.0000           89714           29762         33.1743            8945            4800         53.6613       2113.5939

ENER_1:   900000     -77089.7208          0.0000          0.0000     -73193.5457      -3896.1752          0.0000          0.0000          0.0000          0.0000          0.0000

STAT_1:   900000     328140.5023             577          0.8215          0.1785        216.6757

Steps/sec. : 4698.6588
MOVE_0:  1000000          369155          184444         49.9638          0.5648           25117           13565         54.0072          2.3032               0               0          0.0000          100275           31526         31.4395            9967            5343         53.6069        897.5672

ENER_0:  1000000   -1241055.1090          0.0000          0.0000   -1167679.4965     -73375.6125          0.0000          0.0000          0.0000          0.0000          0.0000

STAT_0:  1000000     149887.7036            1431          0.5115          0.4885        912.4195

MOVE_1:  1000000          370447          185424         50.0541          4.4174           25267           21652         85.6928          3.1416               0               0          0.0000           99772           31957         32.0300            9967            5343         53.6069        897.5672

ENER_1:  1000000     -71984.3811          0.0000          0.0000     -68415.7487      -3568.6324          0.0000          0.0000          0.0000          0.0000          0.0000

STAT_1:  1000000     353669.5738             569          0.8084          0.1916        196.3742

Simulation Time (total): 225.7956sec.
GOMC Serial Version 2.0
Completed at: Sat Apr 22 20:47:01 2017
On hostname: potoff39.eng.wayne.edu
