GOMC Serial Version 1.9
Started at: Fri Dec  9 12:03:04 2016
On hostname: potoff39.eng.wayne.edu

Total number of CPUs: 4
Total number of CPUs available: 4
Model name: Intel(R) Core(TM) i5-2500K CPU @ 3.30GHz

System name: Linux
Release: 2.6.32-642.4.2.el6.x86_64
Version: #1 SMP Tue Aug 23 19:58:13 UTC 2016
Kernel Architecture: x86_64
Total Ram: 7856.3MB
Used Ram: 5542.4MB
Working in the current directory /home3/soroush/Desktop/validation/GOMC_Serial-development_1.90/GOMC_Examples-master/NPT_GEMC/binary_mixture/krypton_and_ethane_T_236_47_K/x_0.596

------------------------------------------------------
This code was compiled to support the Gibbs ensemble.
------------------------------------------------------

REMINDER: EXOTIC force field has been selected!
NPT_GEMC simulation has been selected 
Pressure of system has been set to 37.3 bar 
Temperature of system has been set to 236.5 K 
By default intra box swap frequency has been set to zero
Warning: Electrostatic energy would not be calculated!
Reading from Exotic Parameter File file: ./../../../../common/Par_Mie_Alkane_Vrabec01_Noble_Gases_Exotic.inp

Finished reading Exotic Parameter File file: ./../../../../common/Par_Mie_Alkane_Vrabec01_Noble_Gases_Exotic.inp

Reading from Box 1 PDB coordinate file file: ./STEP3_START_KR_C2P_sys_BOX_0.pdb

Finished reading Box 1 PDB coordinate file file: ./STEP3_START_KR_C2P_sys_BOX_0.pdb

Reading from Box 2 PDB coordinate file file: ./STEP3_START_KR_C2P_sys_BOX_1.pdb

Finished reading Box 2 PDB coordinate file file: ./STEP3_START_KR_C2P_sys_BOX_1.pdb

Random number seed: 92416547

Molecules in PSF:

Molecule Kind: C2P
Idx	name	type	charge	mass
0	C1	CH3	0.0	15.0
1	C2	CH3	0.0	15.0

Bonds:
[0 1] 

Angles:

Dihedrals:

Molecule Kind: KR
Idx	name	type	charge	mass
0	KR	KR	0.0	83.8

Bonds:

Angles:

Dihedrals:

REMINDER! 1-3 and 1-4 Interaction is OFF


########################## INITIAL SIMULATION ENERGY ##########################
ETITLE_BOX_0    TOTAL           INTRA(B)        INTRA(N)        INTER(LJ)       LRC             TOTAL_ELECT     REAL            RECIP           SELF            CORR            

ENERGY_BOX_0    56208760.7726   0.0000          0.0000          56232487.3983   -23726.6257     0.0000          0.0000          0.0000          0.0000          -0.0000         

ETITLE_BOX_1    TOTAL           INTRA(B)        INTRA(N)        INTER(LJ)       LRC             TOTAL_ELECT     REAL            RECIP           SELF            CORR            

ENERGY_BOX_1    -145890.7874    0.0000          0.0000          -131035.4399    -14855.3475     0.0000          0.0000          0.0000          0.0000          -0.0000         

###############################################################################

############################# STARTING SIMULATION #############################
MTITLE_BOX_0    DISTRY          DISACCEPT       DISACCEPT%      DISMAX          ROTATE          ROTACCEPT       ROTACCEPT%      ROTMAX          INTRASWAP       INTACCEPT       INTACCEPT%      TRANSFER        TRANACCEPT      TRANACCEPT%     VOLUME          VOLACCEPT       VOLACCEPT%      VOLMAX          STEP            

ETITLE_BOX_0    TOTAL           INTRA(B)        INTRA(N)        INTER(LJ)       LRC             TOTAL_ELECT     REAL            RECIP           SELF            CORR            
STITLE_BOX_0    VOLUME          TOTALMOL        MOLFRAC_KR      MOLFRAC_C2P     TOT_DENSITY     

MTITLE_BOX_1    DISTRY          DISACCEPT       DISACCEPT%      DISMAX          ROTATE          ROTACCEPT       ROTACCEPT%      ROTMAX          INTRASWAP       INTACCEPT       INTACCEPT%      TRANSFER        TRANACCEPT      TRANACCEPT%     VOLUME          VOLACCEPT       VOLACCEPT%      VOLMAX          STEP            

ETITLE_BOX_1    TOTAL           INTRA(B)        INTRA(N)        INTER(LJ)       LRC             TOTAL_ELECT     REAL            RECIP           SELF            CORR            
STITLE_BOX_1    VOLUME          TOTALMOL        MOLFRAC_KR      MOLFRAC_C2P     TOT_DENSITY     

Printed combined psf to file krypton_ethane_NPT_236_47_K.psf
MOVE_BOX_0      37331           18249           48.8843         0.8726          2505            1637            65.3493         3.1416          0               0               0.0000          9909            5418            54.6776         1009            558             55.3023         9818.2033       100000          

ENERGY_BOX_0    -681755.2544    0.0000          0.0000          -645541.6193    -36213.6351     0.0000          0.0000          0.0000          0.0000          0.0000          

STAT_BOX_0      221329.4954     1212            0.4959          0.5041          515.6917        

MOVE_BOX_1      36739           18196           49.5277         3.9083          2539            2085            82.1189         3.1416          0               0               0.0000          9968            5630            56.4807         1009            558             55.3023         9818.2033       100000          

ENERGY_BOX_1    -119005.9227    0.0000          0.0000          -113477.0704    -5528.8523      0.0000          0.0000          0.0000          0.0000          0.0000          

STAT_BOX_1      467819.2021     788             0.7500          0.2500          196.8159        

Steps/sec. : 9478.0431
MOVE_BOX_0      74209           36679           49.4266         0.6825          4998            3082            61.6647         2.4857          0               0               0.0000          19886           10084           50.7090         2010            1085            53.9801         6978.3305       200000          

ENERGY_BOX_0    -911371.3566    0.0000          0.0000          -861650.2444    -49721.1122     0.0000          0.0000          0.0000          0.0000          0.0000          

STAT_BOX_0      200692.8173     1369            0.5201          0.4799          657.1252        

MOVE_BOX_1      73904           36931           49.9716         7.4260          5020            4212            83.9044         3.1416          0               0               0.0000          19973           10453           52.3357         2010            1085            53.9801         6343.9368       200000          

ENERGY_BOX_1    -79987.4937     0.0000          0.0000          -76143.9588     -3843.5349      0.0000          0.0000          0.0000          0.0000          0.0000          

STAT_BOX_1      426355.6191     631             0.7607          0.2393          174.3421        

Steps/sec. : 7297.6817
MOVE_BOX_0      111067          55163           49.6664         0.7292          7575            4500            59.4059         3.1416          0               0               0.0000          30116           13842           45.9623         3013            1625            53.9330         8162.1432       300000          

ENERGY_BOX_0    -1123542.3319   0.0000          0.0000          -1061462.5291   -62079.8028     0.0000          0.0000          0.0000          0.0000          0.0000          

STAT_BOX_0      187391.7953     1471            0.5105          0.4895          749.5146        

MOVE_BOX_1      110775          55471           50.0754         10.4966         7473            6370            85.2402         3.1416          0               0               0.0000          29981           14313           47.7402         3013            1625            53.9330         6492.6139       300000          

ENERGY_BOX_1    -60917.7726     0.0000          0.0000          -57998.3475     -2919.4251      0.0000          0.0000          0.0000          0.0000          0.0000          

STAT_BOX_1      362951.3911     529             0.8336          0.1664          181.1789        

Steps/sec. : 5471.4380
MOVE_BOX_0      148047          73685           49.7714         0.7100          10085           5856            58.0664         3.0464          0               0               0.0000          40197           17265           42.9510         4050            2173            53.6543         11189.6041      400000          

ENERGY_BOX_0    -1128065.1353   0.0000          0.0000          -1061853.6207   -66211.5146     0.0000          0.0000          0.0000          0.0000          0.0000          

STAT_BOX_0      178444.7025     1499            0.5324          0.4676          818.4284        

MOVE_BOX_1      147753          73923           50.0315         6.9097          9882            8475            85.7620         3.1416          0               0               0.0000          39986           17764           44.4255         4050            2173            53.6543         10172.3674      400000          

ENERGY_BOX_1    -61495.1752     0.0000          0.0000          -58443.7191     -3051.4561      0.0000          0.0000          0.0000          0.0000          0.0000          

STAT_BOX_1      328827.6475     501             0.7864          0.2136          182.9768        

Steps/sec. : 4964.1802
MOVE_BOX_0      185081          92187           49.8090         0.5742          12643           7209            57.0197         3.1416          0               0               0.0000          49959           20268           40.5693         5071            2716            53.5595         9744.4047       500000          

ENERGY_BOX_0    -1214851.9787   0.0000          0.0000          -1142786.5215   -72065.4572     0.0000          0.0000          0.0000          0.0000          0.0000          

STAT_BOX_0      176018.8507     1542            0.5182          0.4818          842.4128        

MOVE_BOX_1      184814          92573           50.0898         10.1105         12444           10671           85.7522         3.1416          0               0               0.0000          49988           20810           41.6300         5071            2716            53.5595         6643.9123       500000          

ENERGY_BOX_1    -45988.5508     0.0000          0.0000          -43651.5890     -2336.9617      0.0000          0.0000          0.0000          0.0000          0.0000          

STAT_BOX_1      330321.7329     458             0.8581          0.1419          175.3790        

Steps/sec. : 4583.6944
MOVE_BOX_0      222229          110826          49.8702         0.6197          15163           8536            56.2949         2.5511          0               0               0.0000          59914           23414           39.0793         6030            3225            53.4826         4736.3156       600000          

ENERGY_BOX_0    -1230552.9483   0.0000          0.0000          -1157671.1360   -72881.8123     0.0000          0.0000          0.0000          0.0000          0.0000          

STAT_BOX_0      168388.1630     1524            0.5276          0.4724          877.8992        

MOVE_BOX_1      221735          111033          50.0746         8.0810          14889           12812           86.0501         3.1416          0               0               0.0000          60040           23938           39.8701         6030            3225            53.4826         3229.3061       600000          

ENERGY_BOX_1    -53136.8655     0.0000          0.0000          -50566.4656     -2570.3999      0.0000          0.0000          0.0000          0.0000          0.0000          

STAT_BOX_1      340994.2636     476             0.8151          0.1849          171.2175        

Steps/sec. : 4942.8412
MOVE_BOX_0      259550          129504          49.8956         0.5591          17638           9838            55.7773         1.7218          0               0               0.0000          69723           26151           37.5070         6939            3714            53.5236         2189.3829       700000          

ENERGY_BOX_0    -1236298.1433   0.0000          0.0000          -1163186.4989   -73111.6444     0.0000          0.0000          0.0000          0.0000          0.0000          

STAT_BOX_0      163807.8167     1505            0.5269          0.4731          890.6640        

MOVE_BOX_1      258581          129514          50.0864         8.3647          17380           14960           86.0759         3.1416          0               0               0.0000          70189           26656           37.9775         6939            3714            53.5236         1679.3562       700000          

ENERGY_BOX_1    -52044.5481     0.0000          0.0000          -49286.9136     -2757.6345      0.0000          0.0000          0.0000          0.0000          0.0000          

STAT_BOX_1      347322.2709     495             0.8061          0.1939          173.6552        

Steps/sec. : 5000.3401
MOVE_BOX_0      296586          148053          49.9191         0.5645          20137           11145           55.3459         2.1222          0               0               0.0000          79715           28871           36.2178         7876            4220            53.5805         9478.0424       800000          

ENERGY_BOX_0    -1212071.3887   0.0000          0.0000          -1140970.9888   -71100.3999     0.0000          0.0000          0.0000          0.0000          0.0000          

STAT_BOX_0      158344.2595     1450            0.5145          0.4855          877.5703        

MOVE_BOX_1      295487          147970          50.0767         6.8548          19954           17189           86.1431         3.1416          0               0               0.0000          80245           29321           36.5393         7876            4220            53.5805         6609.1721       800000          

ENERGY_BOX_1    -63717.4443     0.0000          0.0000          -60658.8463     -3058.5980      0.0000          0.0000          0.0000          0.0000          0.0000          

STAT_BOX_1      384453.5808     550             0.8109          0.1891          174.9335        

Steps/sec. : 5607.9726
MOVE_BOX_0      333627          166625          49.9435         0.5845          22645           12465           55.0453         2.9460          0               0               0.0000          89743           31292           34.8685         8920            4769            53.4641         5081.3709       900000          

ENERGY_BOX_0    -1209333.0027   0.0000          0.0000          -1137210.4125   -72122.5901     0.0000          0.0000          0.0000          0.0000          0.0000          

STAT_BOX_0      154525.1927     1447            0.5204          0.4796          902.3315        

MOVE_BOX_1      332371          166431          50.0739         5.8769          22456           19338           86.1151         3.1416          0               0               0.0000          90238           31739           35.1725         8920            4769            53.4641         3543.3113       900000          

ENERGY_BOX_1    -69348.7129     0.0000          0.0000          -66034.9358     -3313.7771      0.0000          0.0000          0.0000          0.0000          0.0000          

STAT_BOX_1      365807.6509     553             0.7939          0.2061          182.5525        

Steps/sec. : 5309.1601
MOVE_BOX_0      370677          185176          49.9562         0.5383          25151           13791           54.8328         1.7017          0               0               0.0000          99676           33801           33.9109         9969            5319            53.3554         3981.8009       1000000         

ENERGY_BOX_0    -1210882.3681   0.0000          0.0000          -1138890.9810   -71991.3871     0.0000          0.0000          0.0000          0.0000          0.0000          

STAT_BOX_0      148577.0717     1400            0.4957          0.5043          887.2318        

MOVE_BOX_1      369436          184952          50.0633         4.5182          24950           21494           86.1483         3.1416          0               0               0.0000          100141          34201           34.1528         9969            5319            53.3554         2603.0304       1000000         

ENERGY_BOX_1    -71569.0081     0.0000          0.0000          -68037.9468     -3531.0613      0.0000          0.0000          0.0000          0.0000          0.0000          

STAT_BOX_1      387676.2281     600             0.8300          0.1700          191.8863        

Simulation Time (total): 179.4152sec.
GOMC Serial Version 1.9
Completed at: Fri Dec  9 12:06:03 2016
On hostname: potoff39.eng.wayne.edu
